      -----------------------------------------------------------      
     |                   =====================                   |     
     |                           x T B                           |     
     |                   =====================                   |     
     |                         S. Grimme                         |     
     |          Mulliken Center for Theoretical Chemistry        |     
     |                    University of Bonn                     |     
      -----------------------------------------------------------      

   * xtb version 6.6.0 (conda-forge) compiled by 'runner@Mac-1676020848589.local' on 2023-02-10

   xtb is free software: you can redistribute it and/or modify it under
   the terms of the GNU Lesser General Public License as published by
   the Free Software Foundation, either version 3 of the License, or
   (at your option) any later version.
   
   xtb is distributed in the hope that it will be useful,
   but WITHOUT ANY WARRANTY; without even the implied warranty of
   MERCHANTABILITY or FITNESS FOR A PARTICULAR PURPOSE.  See the
   GNU Lesser General Public License for more details.
   
   Cite this work as:
   * C. Bannwarth, E. Caldeweyher, S. Ehlert, A. Hansen, P. Pracht,
     J. Seibert, S. Spicher, S. Grimme, WIREs Comput. Mol. Sci., 2020, 11,
     e01493. DOI: 10.1002/wcms.1493
   
   for GFN2-xTB:
   * C. Bannwarth, S. Ehlert and S. Grimme., J. Chem. Theory Comput., 2019,
     15, 1652-1671. DOI: 10.1021/acs.jctc.8b01176
   for GFN1-xTB:
   * S. Grimme, C. Bannwarth, P. Shushkov, J. Chem. Theory Comput., 2017,
     13, 1989-2009. DOI: 10.1021/acs.jctc.7b00118
   for GFN0-xTB:
   * P. Pracht, E. Caldeweyher, S. Ehlert, S. Grimme, ChemRxiv, 2019, preprint.
     DOI: 10.26434/chemrxiv.8326202.v1
   for GFN-FF:
   * S. Spicher and S. Grimme, Angew. Chem. Int. Ed., 2020, 59, 15665-15673.
     DOI: 10.1002/anie.202004239
   
   for ALPB and GBSA implicit solvation:
   * S. Ehlert, M. Stahn, S. Spicher, S. Grimme, J. Chem. Theory Comput.,
     2021, 17, 4250-4261. DOI: 10.1021/acs.jctc.1c00471
   
   for DFT-D4:
   * E. Caldeweyher, C. Bannwarth and S. Grimme, J. Chem. Phys., 2017,
     147, 034112. DOI: 10.1063/1.4993215
   * E. Caldeweyher, S. Ehlert, A. Hansen, H. Neugebauer, S. Spicher,
     C. Bannwarth and S. Grimme, J. Chem. Phys., 2019, 150, 154122.
     DOI: 10.1063/1.5090222
   * E. Caldeweyher, J.-M. Mewes, S. Ehlert and S. Grimme, Phys. Chem. Chem. Phys.
     2020, 22, 8499-8512. DOI: 10.1039/D0CP00502A
   
   for sTDA-xTB:
   * S. Grimme and C. Bannwarth, J. Chem. Phys., 2016, 145, 054103.
     DOI: 10.1063/1.4959605
   
   in the mass-spec context:
   * V. Asgeirsson, C. Bauer and S. Grimme, Chem. Sci., 2017, 8, 4879.
     DOI: 10.1039/c7sc00601b
   * J. Koopman and S. Grimme, ACS Omega 2019, 4, 12, 15120-15133.
     DOI: 10.1021/acsomega.9b02011
   
   for metadynamics refer to:
   * S. Grimme, J. Chem. Theory Comput., 2019, 155, 2847-2862
     DOI: 10.1021/acs.jctc.9b00143
   
   for SPH calculations refer to:
   * S. Spicher and S. Grimme, J. Chem. Theory Comput., 2021, 17, 1701-1714
     DOI: 10.1021/acs.jctc.0c01306
   
   with help from (in alphabetical order)
   P. Atkinson, C. Bannwarth, F. Bohle, G. Brandenburg, E. Caldeweyher
   M. Checinski, S. Dohm, S. Ehlert, S. Ehrlich, I. Gerasimov, C. Hölzer
   A. Katbashev, J. Koopman, C. Lavigne, S. Lehtola, F. März, M. Müller,
   F. Musil, H. Neugebauer, J. Pisarek, C. Plett, P. Pracht, F. Pultar,
   J. Seibert, P. Shushkov, S. Spicher, M. Stahn, M. Steiner, T. Strunk,
   J. Stückrath, T. Rose, and J. Unsleber
   
 * started run on 2024/09/19 at 14:55:29.788     

           -------------------------------------------------
          |                Calculation Setup                |
           -------------------------------------------------

          program call               : xtb input_molecule.xyz --gfn2 --chrg 0 --opt
          coordinate file            : input_molecule.xyz
          omp threads                :                     8

   ID    Z sym.   atoms
    1    6 C      1-6
    2    1 H      7-12

           -------------------------------------------------
          |                 G F N 2 - x T B                 |
           -------------------------------------------------

        Reference                      10.1021/acs.jctc.8b01176
      * Hamiltonian:
        H0-scaling (s, p, d)           1.850000    2.230000    2.230000
        zeta-weighting                 0.500000
      * Dispersion:
        s8                             2.700000
        a1                             0.520000
        a2                             5.000000
        s9                             5.000000
      * Repulsion:
        kExp                           1.500000    1.000000
        rExp                           1.000000
      * Coulomb:
        alpha                          2.000000
        third order                    shell-resolved
        anisotropic                    true
        a3                             3.000000
        a5                             4.000000
        cn-shift                       1.200000
        cn-exp                         4.000000
        max-rad                        5.000000

q/qsh data taken from xtbrestart
CAMM data taken from xtbrestart

          ...................................................
          :                      SETUP                      :
          :.................................................:
          :  # basis functions                  30          :
          :  # atomic orbitals                  30          :
          :  # shells                           18          :
          :  # electrons                        30          :
          :  max. iterations                   250          :
          :  Hamiltonian                  GFN2-xTB          :
          :  restarted?                       true          :
          :  GBSA solvation                  false          :
          :  PC potential                    false          :
          :  electronic temp.          300.0000000     K    :
          :  accuracy                    1.0000000          :
          :  -> integral cutoff          0.2500000E+02      :
          :  -> integral neglect         0.1000000E-07      :
          :  -> SCF convergence          0.1000000E-05 Eh   :
          :  -> wf. convergence          0.1000000E-03 e    :
          :  Broyden damping             0.4000000          :
          ...................................................

 iter      E             dE          RMSdq      gap      omega  full diag
   1    -16.1750916 -0.161751E+02  0.328E-01    4.78       0.0  T
   2    -16.1751076 -0.159594E-04  0.194E-01    4.78       1.0  T
   3    -16.1751126 -0.498568E-05  0.174E-02    4.78       1.7  T
   4    -16.1751129 -0.318529E-06  0.811E-03    4.78       3.6  T
   5    -16.1751129 -0.285686E-07  0.772E-04    4.78      37.4  T
   6    -16.1751129 -0.248356E-09  0.435E-04    4.78      66.4  T

   *** convergence criteria satisfied after 6 iterations ***

         #    Occupation            Energy/Eh            Energy/eV
      -------------------------------------------------------------
         1        2.0000           -0.6374807             -17.3467
       ...           ...                  ...                  ...
         9        2.0000           -0.4754111             -12.9366
        10        2.0000           -0.4754032             -12.9364
        11        2.0000           -0.4704165             -12.8007
        12        2.0000           -0.4220796             -11.4854
        13        2.0000           -0.4220776             -11.4853
        14        2.0000           -0.4000884             -10.8870
        15        2.0000           -0.4000791             -10.8867 (HOMO)
        16                         -0.2243685              -6.1054 (LUMO)
        17                         -0.2243618              -6.1052
        18                         -0.0984438              -2.6788
        19                          0.1179630               3.2099
        20                          0.1238468               3.3700
       ...                                ...                  ...
        30                          0.6377613              17.3544
      -------------------------------------------------------------
                  HL-Gap            0.1757105 Eh            4.7813 eV
             Fermi-level           -0.3122238 Eh           -8.4960 eV

 SCC (total)                   0 d,  0 h,  0 min,  0.011 sec
 SCC setup                      ...        0 min,  0.002 sec ( 15.782%)
 Dispersion                     ...        0 min,  0.000 sec (  3.298%)
 classical contributions        ...        0 min,  0.000 sec (  2.388%)
 integral evaluation            ...        0 min,  0.001 sec (  9.079%)
 iterations                     ...        0 min,  0.006 sec ( 54.913%)
 molecular gradient             ...        0 min,  0.001 sec (  9.583%)
 printout                       ...        0 min,  0.001 sec (  4.842%)

         :::::::::::::::::::::::::::::::::::::::::::::::::::::
         ::                     SUMMARY                     ::
         :::::::::::::::::::::::::::::::::::::::::::::::::::::
         :: total energy             -15.878387271123 Eh    ::
         :: gradient norm              0.031931274321 Eh/a0 ::
         :: HOMO-LUMO gap              4.781326908787 eV    ::
         ::.................................................::
         :: SCC energy               -16.175112925753 Eh    ::
         :: -> isotropic ES            0.000806222094 Eh    ::
         :: -> anisotropic ES          0.002703732649 Eh    ::
         :: -> anisotropic XC          0.013019097106 Eh    ::
         :: -> dispersion             -0.007977191909 Eh    ::
         :: repulsion energy           0.296718566988 Eh    ::
         :: add. restraining           0.000000000000 Eh    ::
         :: total charge              -0.000000000000 e     ::
         :::::::::::::::::::::::::::::::::::::::::::::::::::::

      ----------------------------------------------------------- 
     |                   =====================                   |
     |                        A N C O P T                        |
     |                   =====================                   |
     |               Approximate Normal Coordinate               |
     |                Rational Function Optimizer                |
      ----------------------------------------------------------- 

          ...................................................
          :                      SETUP                      :
          :.................................................:
          :   optimization level            normal          :
          :   max. optcycles                   200          :
          :   ANC micro-cycles                  20          :
          :   degrees of freedom                30          :
          :.................................................:
          :   RF solver                   davidson          :
          :   write xtbopt.log                true          :
          :   linear?                        false          :
          :   energy convergence         0.5000000E-05 Eh   :
          :   grad. convergence          0.1000000E-02 Eh/α :
          :   maxmium RF displ.          1.0000000          :
          :   Hlow (freq-cutoff)         0.1000000E-01      :
          :   Hmax (freq-cutoff)         5.0000000          :
          :   S6 in model hess.         20.0000000          :
          ...................................................

generating ANC from model Hessian ...
Using Lindh-Hessian (1995)
 Shifting diagonal of input Hessian by    0.0000000000000000     
 Lowest  eigenvalues of input Hessian
    0.000000    0.000000    0.000000    0.000000    0.000000    0.000000
    0.013674    0.013702    0.022763    0.024388    0.062932    0.063192
    0.092277    0.092305    0.096115    0.096157    0.097295    0.118135
 Highest eigenvalues
    1.326495    1.536280    1.536380    1.818629    1.925624    1.925760


........................................................................
.............................. CYCLE    1 ..............................
........................................................................

 iter      E             dE          RMSdq      gap      omega  full diag
   1    -16.1751129 -0.161751E+02  0.148E-04    4.78       0.0  T
   2    -16.1751129 -0.671214E-10  0.882E-05    4.78     327.2  T
   3    -16.1751129 -0.264073E-10  0.517E-05    4.78     557.8  T
     SCC iter.                  ...        0 min,  0.001 sec
     gradient                   ...        0 min,  0.001 sec
 * total energy  :   -15.8783873 Eh     change       -0.3254783E-09 Eh
   gradient norm :     0.0319320 Eh/α   predicted     0.0000000E+00 (-100.00%)
   displ. norm   :     0.0912530 α      lambda       -0.2204280E-02
   maximum displ.:     0.0889927 α      in ANC's #17, #24, #16, ...

........................................................................
.............................. CYCLE    2 ..............................
........................................................................

 iter      E             dE          RMSdq      gap      omega  full diag
   1    -16.1945660 -0.161946E+02  0.144E-01    4.91       0.0  T
   2    -16.1945684 -0.248003E-05  0.861E-02    4.92       1.0  T
   3    -16.1945686 -0.188152E-06  0.542E-03    4.92       5.3  T
   4    -16.1945687 -0.662500E-07  0.158E-03    4.92      18.2  T
   5    -16.1945687 -0.444800E-11  0.110E-04    4.92     262.0  T
   6    -16.1945687 -0.996963E-10  0.362E-05    4.92     797.2  T
     SCC iter.                  ...        0 min,  0.001 sec
     gradient                   ...        0 min,  0.001 sec
 * total energy  :   -15.8796245 Eh     change       -0.1237273E-02 Eh
   gradient norm :     0.0044306 Eh/α   predicted    -0.1111319E-02 ( -10.18%)
   displ. norm   :     0.0105657 α      lambda       -0.3291247E-04
   maximum displ.:     0.0099431 α      in ANC's #17, #24, #3, ...

........................................................................
.............................. CYCLE    3 ..............................
........................................................................

 iter      E             dE          RMSdq      gap      omega  full diag
   1    -16.1967261 -0.161967E+02  0.179E-02    4.93       0.0  T
   2    -16.1967262 -0.751825E-07  0.107E-02    4.93       2.7  T
   3    -16.1967262 -0.274193E-08  0.945E-04    4.93      30.5  T
   4    -16.1967262 -0.194179E-08  0.184E-04    4.93     156.9  T
     SCC iter.                  ...        0 min,  0.001 sec
     gradient                   ...        0 min,  0.001 sec
 * total energy  :   -15.8796406 Eh     change       -0.1602936E-04 Eh
   gradient norm :     0.0002354 Eh/α   predicted    -0.1645997E-04 (   2.69%)
   displ. norm   :     0.0010877 α      lambda       -0.1309891E-06
   maximum displ.:     0.0010657 α      in ANC's #17, #24, #3, ...

........................................................................
.............................. CYCLE    4 ..............................
........................................................................

 iter      E             dE          RMSdq      gap      omega  full diag
   1    -16.1965053 -0.161965E+02  0.147E-03    4.93       0.0  T
   2    -16.1965053 -0.288328E-09  0.873E-04    4.93      33.1  T
   3    -16.1965053  0.947153E-11  0.827E-05    4.93     349.1  T
     SCC iter.                  ...        0 min,  0.000 sec
     gradient                   ...        0 min,  0.001 sec
 * total energy  :   -15.8796407 Eh     change       -0.7852964E-07 Eh
   gradient norm :     0.0000453 Eh/α   predicted    -0.6735390E-07 ( -14.23%)
   displ. norm   :     0.0002477 α      lambda       -0.8616591E-08
   maximum displ.:     0.0002369 α      in ANC's #17, #3, #6, ...

   *** GEOMETRY OPTIMIZATION CONVERGED AFTER 4 ITERATIONS ***

------------------------------------------------------------------------
 total energy gain   :        -0.0012534 Eh       -0.7865 kcal/mol
 total RMSD          :         0.0290869 a0        0.0154 Å
 total power (kW/mol):        -0.8226880 (step) -226.0727 (real)
------------------------------------------------------------------------

 ANCopt (total)                0 d,  0 h,  0 min,  0.015 sec
 optimizer setup                ...        0 min,  0.000 sec (  1.017%)
 model hessian                  ...        0 min,  0.003 sec ( 17.747%)
 ANC generation                 ...        0 min,  0.001 sec (  4.629%)
 coordinate transformation      ...        0 min,  0.000 sec (  0.097%)
 single point calculation       ...        0 min,  0.008 sec ( 56.120%)
 optimization log               ...        0 min,  0.000 sec (  2.633%)
 hessian update                 ...        0 min,  0.000 sec (  0.509%)
 rational function              ...        0 min,  0.002 sec ( 15.592%)

================
 final structure:
================
12
 xtb: 6.6.0 (conda-forge)
C            0.79818058534915       -1.13129830422946        0.01474563112237
C            1.37890683257962        0.12552914107370       -0.00211466350134
C            0.58072622737143        1.25682645405269       -0.01686860576283
C           -0.79818056185260        1.13129824485497       -0.01475246971705
C           -1.37890681979767       -0.12552911898493        0.00211070379423
C           -0.58072618985692       -1.25682666971665        0.01685300811758
H            1.42104047451774       -2.01411124653462        0.02627321273008
H            2.45493963176068        0.22349342199234       -0.00374526880744
H            1.03389307668671        2.23759824264988       -0.03001091618091
H           -1.42104054270812        2.01411133249689       -0.02626406049100
H           -2.45493957504767       -0.22349347624801        0.00375312390984
H           -1.03389313900235       -2.23759802140680        0.03002030478646

 Bond Distances (Angstroems)
 ---------------------------
C1-C2=1.3846         C1-C6=1.3846         C1-H7=1.0805         C2-C1=1.3846         C2-C3=1.3846         C2-H8=1.0805         
C3-C2=1.3846         C3-C4=1.3846         C3-H9=1.0805         C4-C3=1.3846         C4-C5=1.3846         C4-H10=1.0805        
C5-C4=1.3846         C5-C6=1.3846         C5-H11=1.0805        C6-C1=1.3846         C6-C5=1.3846         C6-H12=1.0805        
H7-C1=1.0805         H8-C2=1.0805         H9-C3=1.0805         H10-C4=1.0805        H11-C5=1.0805        H12-C6=1.0805        
 C  H  Rav=1.0805 sigma=0.0000  Rmin=1.0805  Rmax=1.0805     6
 C  C  Rav=1.3846 sigma=0.0000  Rmin=1.3846  Rmax=1.3846     6

 selected bond angles (degree)
 --------------------
C6-C1-C2=120.00                H7-C1-C2=120.00                H7-C1-C6=120.00                C3-C2-C1=120.00                
H8-C2-C1=120.00                H8-C2-C3=120.00                C4-C3-C2=120.00                H9-C3-C2=120.00                
H9-C3-C4=120.00                C5-C4-C3=120.00                H10-C4-C3=120.00               H10-C4-C5=120.00               
C6-C5-C4=120.00                H11-C5-C4=120.00               H11-C5-C6=120.00               C5-C6-C1=120.00                
H12-C6-C1=120.00               H12-C6-C5=120.00               

 selected dihedral angles (degree)
 ---------------------------------
C3-C2-C1-C6=  0.00            C3-C2-C1-H7=180.00            H8-C2-C1-C6=180.00            H8-C2-C1-H7=  0.00            
C4-C3-C2-C1=  0.00            C4-C3-C2-H8=180.00            H9-C3-C2-C1=180.00            H9-C3-C2-H8=  0.00            
C5-C4-C3-C2=  0.00            C5-C4-C3-H9=180.00            H10-C4-C3-C2=180.00           H10-C4-C3-H9=  0.00           
C6-C5-C4-C3=  0.00            C6-C5-C4-H10=180.00           H11-C5-C4-C3=180.00           H11-C5-C4-H10=  0.00          
C5-C6-C1-C2=  0.00            C5-C6-C1-H7=180.00            H12-C6-C1-C2=180.00           H12-C6-C1-H7=  0.00           
C1-C6-C5-C4=  0.00            C1-C6-C5-H11=180.00           H12-C6-C5-C4=180.00           H12-C6-C5-H11=  0.00          
           -------------------------------------------------
          |                Final Singlepoint                |
           -------------------------------------------------

          ...................................................
          :                      SETUP                      :
          :.................................................:
          :  # basis functions                  30          :
          :  # atomic orbitals                  30          :
          :  # shells                           18          :
          :  # electrons                        30          :
          :  max. iterations                   250          :
          :  Hamiltonian                  GFN2-xTB          :
          :  restarted?                      false          :
          :  GBSA solvation                  false          :
          :  PC potential                    false          :
          :  electronic temp.          300.0000000     K    :
          :  accuracy                    1.0000000          :
          :  -> integral cutoff          0.2500000E+02      :
          :  -> integral neglect         0.1000000E-07      :
          :  -> SCF convergence          0.1000000E-05 Eh   :
          :  -> wf. convergence          0.1000000E-03 e    :
          :  Broyden damping             0.4000000          :
          ...................................................

 iter      E             dE          RMSdq      gap      omega  full diag
   1    -16.1965053 -0.161965E+02  0.366E-05    4.93       0.0  T
   2    -16.1965053 -0.635225E-11  0.218E-05    4.93    1324.9  T
   3    -16.1965053 -0.335376E-11  0.106E-05    4.93    2734.1  T

   *** convergence criteria satisfied after 3 iterations ***

         #    Occupation            Energy/Eh            Energy/eV
      -------------------------------------------------------------
         1        2.0000           -0.6416529             -17.4603
       ...           ...                  ...                  ...
         9        2.0000           -0.4763494             -12.9621
        10        2.0000           -0.4763491             -12.9621
        11        2.0000           -0.4747523             -12.9187
        12        2.0000           -0.4213980             -11.4668
        13        2.0000           -0.4213978             -11.4668
        14        2.0000           -0.4025243             -10.9532
        15        2.0000           -0.4025241             -10.9532 (HOMO)
        16                         -0.2211994              -6.0191 (LUMO)
        17                         -0.2211991              -6.0191
        18                         -0.0899307              -2.4471
        19                          0.1179763               3.2103
        20                          0.1376655               3.7461
       ...                                ...                  ...
        30                          0.6740587              18.3421
      -------------------------------------------------------------
                  HL-Gap            0.1813247 Eh            4.9341 eV
             Fermi-level           -0.3118617 Eh           -8.4862 eV

 SCC (total)                   0 d,  0 h,  0 min,  0.001 sec
 SCC setup                      ...        0 min,  0.000 sec (  2.111%)
 Dispersion                     ...        0 min,  0.000 sec (  1.494%)
 classical contributions        ...        0 min,  0.000 sec (  0.552%)
 integral evaluation            ...        0 min,  0.000 sec ( 18.597%)
 iterations                     ...        0 min,  0.000 sec ( 27.790%)
 molecular gradient             ...        0 min,  0.001 sec ( 44.762%)
 printout                       ...        0 min,  0.000 sec (  4.223%)

         :::::::::::::::::::::::::::::::::::::::::::::::::::::
         ::                     SUMMARY                     ::
         :::::::::::::::::::::::::::::::::::::::::::::::::::::
         :: total energy             -15.879640652460 Eh    ::
         :: gradient norm              0.000045517861 Eh/a0 ::
         :: HOMO-LUMO gap              4.934095950017 eV    ::
         ::.................................................::
         :: SCC energy               -16.196505317139 Eh    ::
         :: -> isotropic ES            0.000791228435 Eh    ::
         :: -> anisotropic ES          0.002518102791 Eh    ::
         :: -> anisotropic XC          0.012390430387 Eh    ::
         :: -> dispersion             -0.008019481530 Eh    ::
         :: repulsion energy           0.316857880063 Eh    ::
         :: add. restraining           0.000000000000 Eh    ::
         :: total charge              -0.000000000000 e     ::
         :::::::::::::::::::::::::::::::::::::::::::::::::::::

           -------------------------------------------------
          |                Property Printout                |
           -------------------------------------------------

    * Orbital Energies and Occupations

         #    Occupation            Energy/Eh            Energy/eV
      -------------------------------------------------------------
         1        2.0000           -0.6416529             -17.4603
       ...           ...                  ...                  ...
         3        2.0000           -0.6114898             -16.6395
         4        2.0000           -0.5690000             -15.4833
         5        2.0000           -0.5689999             -15.4833
         6        2.0000           -0.5311797             -14.4541
         7        2.0000           -0.4950011             -13.4697
         8        2.0000           -0.4894015             -13.3173
         9        2.0000           -0.4763494             -12.9621
        10        2.0000           -0.4763491             -12.9621
        11        2.0000           -0.4747523             -12.9187
        12        2.0000           -0.4213980             -11.4668
        13        2.0000           -0.4213978             -11.4668
        14        2.0000           -0.4025243             -10.9532
        15        2.0000           -0.4025241             -10.9532 (HOMO)
        16                         -0.2211994              -6.0191 (LUMO)
        17                         -0.2211991              -6.0191
        18                         -0.0899307              -2.4471
        19                          0.1179763               3.2103
        20                          0.1376655               3.7461
        21                          0.1734440               4.7197
        22                          0.1734451               4.7197
        23                          0.2026639               5.5148
        24                          0.2026648               5.5148
        25                          0.4132003              11.2438
        26                          0.4132038              11.2438
       ...                                ...                  ...
        30                          0.6740587              18.3421
      -------------------------------------------------------------
                  HL-Gap            0.1813247 Eh            4.9341 eV
             Fermi-level           -0.3118617 Eh           -8.4862 eV

     #   Z          covCN         q      C6AA      α(0)
     1   6 C        2.920    -0.029    28.718     8.788
     2   6 C        2.920    -0.029    28.718     8.788
     3   6 C        2.920    -0.029    28.718     8.788
     4   6 C        2.920    -0.029    28.718     8.788
     5   6 C        2.920    -0.029    28.718     8.788
     6   6 C        2.920    -0.029    28.718     8.788
     7   1 H        0.926     0.029     2.604     2.524
     8   1 H        0.926     0.029     2.604     2.524
     9   1 H        0.926     0.029     2.605     2.524
    10   1 H        0.926     0.029     2.604     2.524
    11   1 H        0.926     0.029     2.604     2.524
    12   1 H        0.926     0.029     2.605     2.524

 Mol. C6AA /au·bohr⁶  :       1749.472474
 Mol. C8AA /au·bohr⁸  :      42661.695109
 Mol. α(0) /au        :         67.869886


Wiberg/Mayer (AO) data.
largest (>0.10) Wiberg bond orders for each atom

 ---------------------------------------------------------------------------
     #   Z sym  total        # sym  WBO       # sym  WBO       # sym  WBO
 ---------------------------------------------------------------------------
     1   6 C    3.993 --     2 C    1.441     6 C    1.441     7 H    0.972
                             4 C    0.114
     2   6 C    3.993 --     1 C    1.441     3 C    1.441     8 H    0.972
                             5 C    0.114
     3   6 C    3.993 --     2 C    1.441     4 C    1.441     9 H    0.972
                             6 C    0.114
     4   6 C    3.993 --     5 C    1.441     3 C    1.441    10 H    0.972
                             1 C    0.114
     5   6 C    3.993 --     4 C    1.441     6 C    1.441    11 H    0.972
                             2 C    0.114
     6   6 C    3.993 --     5 C    1.441     1 C    1.441    12 H    0.972
                             3 C    0.114
     7   1 H    0.999 --     1 C    0.972
     8   1 H    0.999 --     2 C    0.972
     9   1 H    0.999 --     3 C    0.972
    10   1 H    0.999 --     4 C    0.972
    11   1 H    0.999 --     5 C    0.972
    12   1 H    0.999 --     6 C    0.972
 ---------------------------------------------------------------------------

Topologies differ in total number of bonds
Writing topology from bond orders to xtbtopo.mol

molecular dipole:
                 x           y           z       tot (Debye)
 q only:        0.000       0.000       0.000
   full:        0.000       0.000       0.000       0.000
molecular quadrupole (traceless):
                xx          xy          yy          xz          yz          zz
 q only:        0.640      -0.000       0.640      -0.001      -0.025      -1.279
  q+dip:        2.669      -0.000       2.667      -0.003      -0.106      -5.336
   full:        1.334      -0.000       1.333      -0.001      -0.053      -2.667

           -------------------------------------------------
          |                Geometry Summary                 |
           -------------------------------------------------

      molecular mass/u    :       78.1120599
   center of mass at/Å    :        0.0000000      -0.0000000      -0.0000037
  moments of inertia/u·Å² :        0.8745368E+02   0.8745385E+02   0.1749075E+03
rotational constants/cm⁻¹ :        0.1927607E+00   0.1927603E+00   0.9638025E-01

 * 12 selected distances

     #   Z          #   Z                                           value/Å
     1   6 C        2   6 C                                       1.3846093
     2   6 C        3   6 C                                       1.3846097
     3   6 C        4   6 C                                       1.3846105 (max)
     4   6 C        5   6 C                                       1.3846092
     1   6 C        6   6 C                                       1.3846104
     5   6 C        6   6 C                                       1.3846097
     1   6 C        7   1 H                                       1.0804843 (min)
     2   6 C        8   1 H                                       1.0804844
     3   6 C        9   1 H                                       1.0804844
     4   6 C       10   1 H                                       1.0804843
     5   6 C       11   1 H                                       1.0804843
     6   6 C       12   1 H                                       1.0804843

 * 2 distinct bonds (by element types)

   Z      Z             #   av. dist./Å        max./Å        min./Å
   1 H    6 C           6     1.0804843     1.0804844     1.0804843
   6 C    6 C           6     1.3846098     1.3846105     1.3846092


optimized geometry written to: xtbopt.xyz


           -------------------------------------------------
          | TOTAL ENERGY              -15.879640652460 Eh   |
          | GRADIENT NORM               0.000045517861 Eh/α |
          | HOMO-LUMO GAP               4.934095950017 eV   |
           -------------------------------------------------

------------------------------------------------------------------------
 * finished run on 2024/09/19 at 14:55:38.449     
------------------------------------------------------------------------
 total:
 * wall-time:     0 d,  0 h,  0 min,  8.660 sec
 *  cpu-time:     0 d,  0 h,  0 min,  1.648 sec
 * ratio c/w:     0.190 speedup
 SCF:
 * wall-time:     0 d,  0 h,  0 min,  0.012 sec
 *  cpu-time:     0 d,  0 h,  0 min,  0.065 sec
 * ratio c/w:     5.552 speedup
 ANC optimizer:
 * wall-time:     0 d,  0 h,  0 min,  0.017 sec
 *  cpu-time:     0 d,  0 h,  0 min,  0.117 sec
 * ratio c/w:     6.911 speedup

