12
 energy: -15.878387271448 gnorm: 0.031932047672 xtb: 6.6.0 (conda-forge)
C            0.80650000000000       -1.14310000000000        0.01490000000000
C            1.39330000000000        0.12680000000000       -0.00210000000000
C            0.58680000000000        1.26990000000000       -0.01700000000000
C           -0.80650000000000        1.14310000000000       -0.01490000000000
C           -1.39330000000000       -0.12680000000000        0.00210000000000
C           -0.58680000000000       -1.26990000000000        0.01710000000000
H            1.43040000000000       -2.02740000000000        0.02640000000000
H            2.47120000000000        0.22500000000000       -0.00380000000000
H            1.04070000000000        2.25240000000000       -0.03020000000000
H           -1.43040000000000        2.02740000000000       -0.02650000000000
H           -2.47120000000000       -0.22500000000000        0.00380000000000
H           -1.04070000000000       -2.25240000000000        0.03020000000000
12
 energy: -15.879624544522 gnorm: 0.004430619403 xtb: 6.6.0 (conda-forge)
C            0.79910899541483       -1.13262481843046        0.01475949484804
C            1.38051997848577        0.12566002218534       -0.00211474035898
C            0.58141263662415        1.25828044595497       -0.01688963610076
C           -0.79910902477353        1.13262464158294       -0.01477289872761
C           -1.38051990835356       -0.12565990900931        0.00211515351818
C           -0.58141260276882       -1.25828108551357        0.01687092659025
H            1.42178337689274       -2.01519052548815        0.02627969936831
H            2.45625795795464        0.22363285811542       -0.00374630301645
H            1.03442995038682        2.23879795336860       -0.03001629062652
H           -1.42178336810553        2.01519068891047       -0.02628916310779
H           -2.45625787051919       -0.22363282572736        0.00375985897170
H           -1.03443012123832       -2.23879744594888        0.03004389864163
12
 energy: -15.879640573880 gnorm: 0.000235384481 xtb: 6.6.0 (conda-forge)
C            0.79813980847966       -1.13124477887603        0.01475764956769
C            1.37883963302311        0.12551797216076       -0.00210144589641
C            0.58070055338782        1.25675993816453       -0.01685101071406
C           -0.79813979105611        1.13124486321124       -0.01475288061668
C           -1.37883959830132       -0.12551783748672        0.00210330432434
C           -0.58070049860119       -1.25675984100135        0.01686651447488
H            1.42090556609653       -2.01393249193571        0.02625566536466
H            2.45471757919849        0.22348140486490       -0.00375642326361
H            1.03379305211549        2.23739560279961       -0.03001812942616
H           -1.42090554855339        2.01393240989964       -0.02626513830023
H           -2.45471752810400       -0.22348168402834        0.00374892499196
H           -1.03379322768510       -2.23739555777253        0.03001296949362
12
 energy: -15.879640652410 gnorm: 0.000045293131 xtb: 6.6.0 (conda-forge)
C            0.79818058534915       -1.13129830422946        0.01474563112237
C            1.37890683257962        0.12552914107370       -0.00211466350134
C            0.58072622737143        1.25682645405269       -0.01686860576283
C           -0.79818056185260        1.13129824485497       -0.01475246971705
C           -1.37890681979767       -0.12552911898493        0.00211070379423
C           -0.58072618985692       -1.25682666971665        0.01685300811758
H            1.42104047451774       -2.01411124653462        0.02627321273008
H            2.45493963176068        0.22349342199234       -0.00374526880744
H            1.03389307668671        2.23759824264988       -0.03001091618091
H           -1.42104054270812        2.01411133249689       -0.02626406049100
H           -2.45493957504767       -0.22349347624801        0.00375312390984
H           -1.03389313900235       -2.23759802140680        0.03002030478646
