12
 energy: -15.878390503123 gnorm: 0.031864345762 xtb: 6.6.0 (conda-forge)
C            0.49420000000000       -1.30880000000000       -0.00030000000000
C            1.38050000000000       -0.22650000000000       -0.01440000000000
C            0.88630000000000        1.08240000000000       -0.01420000000000
C           -0.49420000000000        1.30880000000000        0.00030000000000
C           -1.38050000000000        0.22650000000000        0.01440000000000
C           -0.88630000000000       -1.08240000000000        0.01420000000000
H            0.87650000000000       -2.32140000000000       -0.00050000000000
H            2.44850000000000       -0.40170000000000       -0.02560000000000
H            1.57200000000000        1.91980000000000       -0.02510000000000
H           -0.87650000000000        2.32140000000000        0.00050000000000
H           -2.44850000000000        0.40170000000000        0.02560000000000
H           -1.57200000000000       -1.91980000000000        0.02510000000000
12
 energy: -15.879624614801 gnorm: 0.004415251689 xtb: 6.6.0 (conda-forge)
C            0.48966615955314       -1.29683573915782       -0.00027963924386
C            1.36787113697013       -0.22439876049004       -0.01430306679344
C            0.87820237766012        1.07247719981245       -0.01401927424079
C           -0.48966615956444        1.29683573915665        0.00027963924399
C           -1.36787113697128        0.22439876050240        0.01430306679340
C           -0.87820237764881       -1.07247719982203        0.01401927424070
H            0.87121083963721       -2.30740382483540       -0.00048125972160
H            2.43375281612605       -0.39923853029778       -0.02545193219313
H            1.56252597860015        1.90817783627580       -0.02495168782147
H           -0.87121083963626        2.30740382483415        0.00048125972159
H           -2.43375281612489        0.39923853029690        0.02545193219312
H           -1.56252597860109       -1.90817783627529        0.02495168782148
12
 energy: -15.879640574852 gnorm: 0.000234241131 xtb: 6.6.0 (conda-forge)
C            0.48907212192619       -1.29527650620480       -0.00027254961212
C            1.36620998137203       -0.22412103923785       -0.01428295357031
C            0.87713589092512        1.07116819209372       -0.01401374308105
C           -0.48907212193209        1.29527650620223        0.00027254961220
C           -1.36620998137065        0.22412103924400        0.01428295357027
C           -0.87713589091951       -1.07116819209829        0.01401374308101
H            0.87067550354593       -2.30596856417131       -0.00049543694993
H            2.43223368839010       -0.39898873561808       -0.02542698347638
H            1.56154627600175        1.90697431904156       -0.02494013694549
H           -0.87067550354065        2.30596856417267        0.00049543694987
H           -2.43223368839007        0.39898873561203        0.02542698347640
H           -1.56154627600814       -1.90697431903587        0.02494013694554
12
 energy: -15.879640652485 gnorm: 0.000044949173 xtb: 6.6.0 (conda-forge)
C            0.48909699141881       -1.29534756635285       -0.00027972423828
C            1.36627475447021       -0.22413168717076       -0.01428589126523
C            0.87717720114218        1.07121769812518       -0.01400354045012
C           -0.48909699142112        1.29534756635201        0.00027972423831
C           -1.36627475446981        0.22413168717319        0.01428589126522
C           -0.87717720113983       -1.07121769812705        0.01400354045010
H            0.87076170234426       -2.30617862213011       -0.00048504129805
H            2.43245093983326       -0.39903005703474       -0.02543442584042
H            1.56168500802126        1.90714460613284       -0.02494200989256
H           -0.87076170233894        2.30617862213201        0.00048504129797
H           -2.43245093983417        0.39903005702926        0.02543442584046
H           -1.56168500802610       -1.90714460612899        0.02494200989259
