12
 energy: -15.879640652565 gnorm: 0.000045219245 xtb: 6.6.0 (conda-forge)
C            0.48909699141881       -1.29534756635285       -0.00027972423828
C            1.36627475447021       -0.22413168717076       -0.01428589126523
C            0.87717720114218        1.07121769812518       -0.01400354045012
C           -0.48909699142112        1.29534756635201        0.00027972423831
C           -1.36627475446981        0.22413168717319        0.01428589126522
C           -0.87717720113983       -1.07121769812705        0.01400354045010
H            0.87076170234426       -2.30617862213011       -0.00048504129805
H            2.43245093983326       -0.39903005703474       -0.02543442584042
H            1.56168500802126        1.90714460613284       -0.02494200989256
H           -0.87076170233894        2.30617862213201        0.00048504129797
H           -2.43245093983417        0.39903005702926        0.02543442584046
H           -1.56168500802610       -1.90714460612899        0.02494200989259
