12
 energy: -15.879640652460 gnorm: 0.000045517861 xtb: 6.6.0 (conda-forge)
C            0.79818058534915       -1.13129830422946        0.01474563112237
C            1.37890683257962        0.12552914107370       -0.00211466350134
C            0.58072622737143        1.25682645405269       -0.01686860576283
C           -0.79818056185260        1.13129824485497       -0.01475246971705
C           -1.37890681979767       -0.12552911898493        0.00211070379423
C           -0.58072618985692       -1.25682666971665        0.01685300811758
H            1.42104047451774       -2.01411124653462        0.02627321273008
H            2.45493963176068        0.22349342199234       -0.00374526880744
H            1.03389307668671        2.23759824264988       -0.03001091618091
H           -1.42104054270812        2.01411133249689       -0.02626406049100
H           -2.45493957504767       -0.22349347624801        0.00375312390984
H           -1.03389313900235       -2.23759802140680        0.03002030478646
