 Entering Gaussian System, Link 0=g16
 Input=example1_IRC.com
 Output=example1_IRC.log
 Initial command:
 /gpfs/fs1/soft/improv/software/custom-built/gaussian/g16/l1.exe "/gpfs/fs1/home/hharb/testrun/Gaussian/IRC_example/Gau-83539.inp" -scrdir="/gpfs/fs1/home/hharb/testrun/Gaussian/IRC_example/"
 Entering Link 1 = /gpfs/fs1/soft/improv/software/custom-built/gaussian/g16/l1.exe PID=     83542.
  
 Copyright (c) 1988-2021, Gaussian, Inc.  All Rights Reserved.
  
 This is part of the Gaussian(R) 16 program.  It is based on
 the Gaussian(R) 09 system (copyright 2009, Gaussian, Inc.),
 the Gaussian(R) 03 system (copyright 2003, Gaussian, Inc.),
 the Gaussian(R) 98 system (copyright 1998, Gaussian, Inc.),
 the Gaussian(R) 94 system (copyright 1995, Gaussian, Inc.),
 the Gaussian 92(TM) system (copyright 1992, Gaussian, Inc.),
 the Gaussian 90(TM) system (copyright 1990, Gaussian, Inc.),
 the Gaussian 88(TM) system (copyright 1988, Gaussian, Inc.),
 the Gaussian 86(TM) system (copyright 1986, Carnegie Mellon
 University), and the Gaussian 82(TM) system (copyright 1983,
 Carnegie Mellon University). Gaussian is a federally registered
 trademark of Gaussian, Inc.
  
 This software contains proprietary and confidential information,
 including trade secrets, belonging to Gaussian, Inc.
  
 This software is provided under written license and may be
 used, copied, transmitted, or stored only in accord with that
 written license.
  
 The following legend is applicable only to US Government
 contracts under FAR:
  
                    RESTRICTED RIGHTS LEGEND
  
 Use, reproduction and disclosure by the US Government is
 subject to restrictions as set forth in subparagraphs (a)
 and (c) of the Commercial Computer Software - Restricted
 Rights clause in FAR 52.227-19.
  
 Gaussian, Inc.
 340 Quinnipiac St., Bldg. 40, Wallingford CT 06492
  
  
 ---------------------------------------------------------------
 Warning -- This program may not be used in any manner that
 competes with the business of Gaussian, Inc. or will provide
 assistance to any competitor of Gaussian, Inc.  The licensee
 of this program is prohibited from giving any competitor of
 Gaussian, Inc. access to this program.  By using this program,
 the user acknowledges that Gaussian, Inc. is engaged in the
 business of creating and licensing software in the field of
 computational chemistry and represents and warrants to the
 licensee that it is not a competitor of Gaussian, Inc. and that
 it will not use this program in any manner prohibited above.
 ---------------------------------------------------------------
  

 Cite this work as:
 Gaussian 16, Revision C.02,
 M. J. Frisch, G. W. Trucks, H. B. Schlegel, G. E. Scuseria, 
 M. A. Robb, J. R. Cheeseman, G. Scalmani, V. Barone, 
 G. A. Petersson, H. Nakatsuji, X. Li, M. Caricato, A. V. Marenich, 
 J. Bloino, B. G. Janesko, R. Gomperts, B. Mennucci, H. P. Hratchian, 
 J. V. Ortiz, A. F. Izmaylov, J. L. Sonnenberg, D. Williams-Young, 
 F. Ding, F. Lipparini, F. Egidi, J. Goings, B. Peng, A. Petrone, 
 T. Henderson, D. Ranasinghe, V. G. Zakrzewski, J. Gao, N. Rega, 
 G. Zheng, W. Liang, M. Hada, M. Ehara, K. Toyota, R. Fukuda, 
 J. Hasegawa, M. Ishida, T. Nakajima, Y. Honda, O. Kitao, H. Nakai, 
 T. Vreven, K. Throssell, J. A. Montgomery, Jr., J. E. Peralta, 
 F. Ogliaro, M. J. Bearpark, J. J. Heyd, E. N. Brothers, K. N. Kudin, 
 V. N. Staroverov, T. A. Keith, R. Kobayashi, J. Normand, 
 K. Raghavachari, A. P. Rendell, J. C. Burant, S. S. Iyengar, 
 J. Tomasi, M. Cossi, J. M. Millam, M. Klene, C. Adamo, R. Cammi, 
 J. W. Ochterski, R. L. Martin, K. Morokuma, O. Farkas, 
 J. B. Foresman, and D. J. Fox, Gaussian, Inc., Wallingford CT, 2019.
 
 ******************************************
 Gaussian 16:  ES64L-G16RevC.02  7-Dec-2021
                28-Aug-2024 
 ******************************************
 %oldchk=example1.chk
 %chk=example1_IRC
 Copying data from "example1.chk" to current chk file "example1_IRC.chk"
 IOpt=  2 FromEx=T IUOpen= 4 IOptOp= 5 NList=   0 IFRang= 0 IUIn= 4 IUOut= 2.
 ----------------------------------------------------------------------
 #p hf geom=allcheck guess=read chkbasis IRC=(readcartesian,recorrect=n
 ever)
 ----------------------------------------------------------------------
 1/10=5,18=10,29=7,38=1,44=3,131=1,172=1/1,23;
 2/12=2,29=1,40=1/2;
 3/5=7,6=2,11=9,14=-4,25=1,30=1,67=1,71=2,116=-2,140=1/1,2,3;
 4/5=1/1;
 5/5=2,38=6/2;
 8/6=4,10=90,11=11/1;
 11/6=1,8=1,9=11,15=111,16=1/1,2,10;
 10/6=1,13=1/2;
 6/7=2,8=2,9=2,10=2,28=1/1;
 7/10=1,25=1/1,2,3,16;
 1/18=10,44=3,131=1/23(2);
 2/29=1/2;
 99/5=20/99;
 2/29=1/2;
 3/5=7,6=1,11=9,14=-2,25=1,30=1,71=2,82=7,140=1/1,2,3;
 4/5=5,16=3,69=1/1;
 5/5=2,38=5/2;
 8/6=4,10=90,11=11/1;
 11/6=1,8=1,9=11,15=111,16=1/1,2,10;
 10/6=1,13=1/2;
 7/10=1,25=1/1,2,3,16;
 1/18=10,44=3,131=1/23(-8);
 2/29=1/2;
 6/7=2,8=2,9=2,10=2,19=2,28=1/1;
 99/5=20,9=1/99;
 Leave Link    1 at Wed Aug 28 16:21:31 2024, MaxMem=   104857600 cpu:               0.0 elap:               0.1
 (Enter /gpfs/fs1/soft/improv/software/custom-built/gaussian/g16/l101.exe)
 Structure from the checkpoint file:  "example1_IRC.chk"
 -------------------
 Title Card Required
 -------------------
 Charge = -1 Multiplicity = 1
 Redundant internal coordinates found in file.  (old form).
 C,0,-7.5282987986,0.405478948,-0.0742246483
 H,0,-8.2973940258,1.0429907586,0.2822049976
 H,0,-7.7804693556,-0.519570309,-0.5277274571
 H,0,-6.530534099,0.761790021,-0.1248316656
 Cl,0,-7.2053925983,-0.5606528135,1.9957725547
 Br,0,-7.8944159731,1.4993981065,-2.4183331505
 Recover connectivity data from disk.
 ITRead=  0  0  0  0  0  0
 MicOpt= -1 -1 -1 -1 -1 -1
 NAtoms=      6 NQM=        6 NQMF=       0 NMMI=      0 NMMIF=      0
                NMic=       0 NMicF=      0.
                    Isotopes and Nuclear Properties:
 (Nuclear quadrupole moments (NQMom) in fm**2, nuclear magnetic moments (NMagM)
  in nuclear magnetons)

  Atom         1           2           3           4           5           6
 IAtWgt=          12           1           1           1          35          79
 AtmWgt=  12.0000000   1.0078250   1.0078250   1.0078250  34.9688527  78.9183361
 NucSpn=           0           1           1           1           3           3
 AtZEff=   3.6000000   1.0000000   1.0000000   1.0000000  14.2400000  24.5000000
 NQMom=    0.0000000   0.0000000   0.0000000   0.0000000  -8.1650000  31.3000000
 NMagM=    0.0000000   2.7928460   2.7928460   2.7928460   0.8218740   2.1063990
 AtZNuc=   6.0000000   1.0000000   1.0000000   1.0000000  17.0000000  35.0000000
 Leave Link  101 at Wed Aug 28 16:21:31 2024, MaxMem=   104857600 cpu:               0.0 elap:               0.1
 (Enter /gpfs/fs1/soft/improv/software/custom-built/gaussian/g16/l123.exe)
 IRC-IRC-IRC-IRC-IRC-IRC-IRC-IRC-IRC-IRC-IRC-IRC-IRC-IRC-IRC-IRC-IRC-IRC
 ------------------------------------------------------------------------
 INPUT DATA FOR L123
 ------------------------------------------------------------------------
 GENERAL PARAMETERS:
 Follow reaction path in both directions.
 Maximum points per path      =  10
 Step size                    =   0.100 bohr
 Integration scheme           = HPC                                 
    Redo corrector integration= Never                               
    DWI Weight Power          =  2
    DWI will use Hessian update vectors when possible.
 Initial Hessian              = ReadFC from chk
 Hessian evaluation           = All updating
 Hessian updating method      = Bofill                              
 ------------------------------------------------------------------------
          ******** Start new reaction path calculation ********
 RCFC Option Requested - Data Read From Chk File:
 "example1_IRC.chk"
   Energy From Chk =  -3056.8053036

 Current Structure is TS -> form Hessian eigenvectors.
                            Recovering Hessian eigenvectors from chk file.
 Supplied step size of   0.1000 bohr.
    Integration on MW PES will use step size of   0.3479 sqrt(amu)*bohr.
 Point Number:   0          Path Number:   1
 Calculating another point on the path.
 Point Number  1 in FORWARD path direction.
 Using LQA Reaction Path Following.
 IRC-IRC-IRC-IRC-IRC-IRC-IRC-IRC-IRC-IRC-IRC-IRC-IRC-IRC-IRC-IRC-IRC-IRC
 Leave Link  123 at Wed Aug 28 16:21:31 2024, MaxMem=   104857600 cpu:               0.0 elap:               0.0
 (Enter /gpfs/fs1/soft/improv/software/custom-built/gaussian/g16/l202.exe)
                          Input orientation:                          
 ---------------------------------------------------------------------
 Center     Atomic      Atomic             Coordinates (Angstroms)
 Number     Number       Type             X           Y           Z
 ---------------------------------------------------------------------
      1          6           0        0.129713   -0.387183    0.829759
      2          1           0       -0.634801    0.233876    1.224299
      3          1           0       -0.117019   -1.331277    0.413023
      4          1           0        1.134988   -0.047789    0.816583
      5         17           0        0.460641   -1.377303    2.951154
      6         35           0       -0.228728    0.683783   -1.465169
 ---------------------------------------------------------------------
                    Distance matrix (angstroms):
                    1          2          3          4          5
     1  C    0.000000
     2  H    1.061065   0.000000
     3  H    1.061065   1.837382   0.000000
     4  H    1.061103   1.837858   1.837859   0.000000
     5  Cl   2.364353   2.603443   2.603443   2.603602   0.000000
     6  Br   2.557761   2.756910   2.756910   2.757048   4.922114
                    6
     6  Br   0.000000
 Symmetry turned off by external request.
 Stoichiometry    CH3BrCl(1-)
 Framework group  C1[X(CH3BrCl)]
 Deg. of freedom    12
 Full point group                 C1      NOp   1
 Rotational constants (GHZ):         148.4851224           0.8377892           0.8377876
 Leave Link  202 at Wed Aug 28 16:21:32 2024, MaxMem=   104857600 cpu:               0.0 elap:               0.1
 (Enter /gpfs/fs1/soft/improv/software/custom-built/gaussian/g16/l301.exe)
 Basis read from chk: "example1_IRC.chk" (6D, 7F)
 No pseudopotential information found on chk file.
    51 basis functions,   108 primitive gaussians,    51 cartesian basis functions
    31 alpha electrons       31 beta electrons
       nuclear repulsion energy       170.6055242277 Hartrees.
 IExCor=    0 DFT=F Ex=HF Corr=None ExCW=0 ScaHFX=  1.000000
 ScaDFX=  1.000000  1.000000  1.000000  1.000000 ScalE2=  1.000000  1.000000
 IRadAn=      5 IRanWt=     -1 IRanGd=            0 ICorTp=0 IEmpDi=  4
 NAtoms=    6 NActive=    6 NUniq=    6 SFac= 1.00D+00 NAtFMM=   60 NAOKFM=F Big=F
 Integral buffers will be    131072 words long.
 Raffenetti 1 integral format.
 Two-electron integral symmetry is turned off.
 No density basis found on file  20724.
 Leave Link  301 at Wed Aug 28 16:21:32 2024, MaxMem=   104857600 cpu:               0.0 elap:               0.0
 (Enter /gpfs/fs1/soft/improv/software/custom-built/gaussian/g16/l302.exe)
 NPDir=0 NMtPBC=     1 NCelOv=     1 NCel=       1 NClECP=     1 NCelD=      1
         NCelK=      1 NCelE2=     1 NClLst=     1 CellRange=     0.0.
 One-electron integrals computed using PRISM.
 NBasis=    51 RedAO= T EigKep=  4.90D-03  NBF=    51
 NBsUse=    51 1.00D-06 EigRej= -1.00D+00 NBFU=    51
 Leave Link  302 at Wed Aug 28 16:21:33 2024, MaxMem=   104857600 cpu:               0.1 elap:               0.1
 (Enter /gpfs/fs1/soft/improv/software/custom-built/gaussian/g16/l303.exe)
 DipDrv:  MaxL=1.
 Leave Link  303 at Wed Aug 28 16:21:33 2024, MaxMem=   104857600 cpu:               0.0 elap:               0.0
 (Enter /gpfs/fs1/soft/improv/software/custom-built/gaussian/g16/l401.exe)
 Initial guess from the checkpoint file:  "example1_IRC.chk"
 B after Tr=     0.030572   -0.091389    0.195824
         Rot=   -0.309706    0.688558   -0.496647    0.428150 Ang= 216.08 deg.
 Guess basis will be translated and rotated to current coordinates.
 JPrj=2 DoOrth=T DoCkMO=T.
 Leave Link  401 at Wed Aug 28 16:21:33 2024, MaxMem=   104857600 cpu:               0.0 elap:               0.1
 (Enter /gpfs/fs1/soft/improv/software/custom-built/gaussian/g16/l502.exe)
 Keep R1 ints in memory in canonical form, NReq=1713103.
 FoFCou: FMM=F IPFlag=           0 FMFlag=           0 FMFlg1=           0
         NFxFlg=           0 DoJE=F BraDBF=F KetDBF=F FulRan=T
         wScrn=  0.000000 ICntrl=       600 IOpCl=  0 I1Cent=           0 NGrid=           0
         NMat0=    1 NMatS0=   1326 NMatT0=    0 NMatD0=    1 NMtDS0=    0 NMtDT0=    0
 Symmetry not used in FoFCou.
 Two-electron integral symmetry not used.
 Closed shell SCF:
 Using DIIS extrapolation, IDIIS=  1040.
 NGot=   104857600 LenX=   103971534 LenY=   103968492
 Requested convergence on RMS density matrix=1.00D-08 within 128 cycles.
 Requested convergence on MAX density matrix=1.00D-06.
 Requested convergence on             energy=1.00D-06.
 No special actions if energy rises.

 Cycle   1  Pass 1  IDiag  1:
 E= -3056.80448001465    
 DIIS: error= 2.56D-03 at cycle   1 NSaved=   1.
 NSaved= 1 IEnMin= 1 EnMin= -3056.80448001465     IErMin= 1 ErrMin= 2.56D-03
 ErrMax= 2.56D-03  0.00D+00 EMaxC= 1.00D-01 BMatC= 5.05D-04 BMatP= 5.05D-04
 IDIUse=3 WtCom= 9.74D-01 WtEn= 2.56D-02
 Coeff-Com:  0.100D+01
 Coeff-En:   0.100D+01
 Coeff:      0.100D+01
 Gap=     0.430 Goal=   None    Shift=    0.000
 GapD=    0.430 DampG=2.000 DampE=1.000 DampFc=2.0000 IDamp=-1.
 RMSDP=7.60D-04 MaxDP=6.49D-03              OVMax= 0.00D+00

 Cycle   2  Pass 1  IDiag  1:
 E= -3056.80540584968     Delta-E=       -0.000925835029 Rises=F Damp=F
 DIIS: error= 7.80D-04 at cycle   2 NSaved=   2.
 NSaved= 2 IEnMin= 2 EnMin= -3056.80540584968     IErMin= 2 ErrMin= 7.80D-04
 ErrMax= 7.80D-04  0.00D+00 EMaxC= 1.00D-01 BMatC= 3.94D-05 BMatP= 5.05D-04
 IDIUse=3 WtCom= 9.92D-01 WtEn= 7.80D-03
 Coeff-Com: -0.169D+00 0.117D+01
 Coeff-En:   0.000D+00 0.100D+01
 Coeff:     -0.167D+00 0.117D+01
 Gap=     0.431 Goal=   None    Shift=    0.000
 RMSDP=3.74D-04 MaxDP=3.54D-03 DE=-9.26D-04 OVMax= 0.00D+00

 Cycle   3  Pass 1  IDiag  1:
 E= -3056.80553583794     Delta-E=       -0.000129988262 Rises=F Damp=F
 DIIS: error= 2.32D-04 at cycle   3 NSaved=   3.
 NSaved= 3 IEnMin= 3 EnMin= -3056.80553583794     IErMin= 3 ErrMin= 2.32D-04
 ErrMax= 2.32D-04  0.00D+00 EMaxC= 1.00D-01 BMatC= 3.20D-06 BMatP= 3.94D-05
 IDIUse=3 WtCom= 9.98D-01 WtEn= 2.32D-03
 Coeff-Com: -0.914D-04-0.253D+00 0.125D+01
 Coeff-En:   0.000D+00 0.000D+00 0.100D+01
 Coeff:     -0.912D-04-0.252D+00 0.125D+01
 Gap=     0.432 Goal=   None    Shift=    0.000
 RMSDP=1.40D-04 MaxDP=1.18D-03 DE=-1.30D-04 OVMax= 0.00D+00

 Cycle   4  Pass 1  IDiag  1:
 E= -3056.80555065108     Delta-E=       -0.000014813141 Rises=F Damp=F
 DIIS: error= 9.08D-05 at cycle   4 NSaved=   4.
 NSaved= 4 IEnMin= 4 EnMin= -3056.80555065108     IErMin= 4 ErrMin= 9.08D-05
 ErrMax= 9.08D-05  0.00D+00 EMaxC= 1.00D-01 BMatC= 3.93D-07 BMatP= 3.20D-06
 IDIUse=1 WtCom= 1.00D+00 WtEn= 0.00D+00
 Coeff-Com:  0.137D-01-0.136D+00 0.163D+00 0.959D+00
 Coeff:      0.137D-01-0.136D+00 0.163D+00 0.959D+00
 Gap=     0.432 Goal=   None    Shift=    0.000
 RMSDP=3.59D-05 MaxDP=3.34D-04 DE=-1.48D-05 OVMax= 0.00D+00

 Cycle   5  Pass 1  IDiag  1:
 E= -3056.80555161026     Delta-E=       -0.000000959175 Rises=F Damp=F
 DIIS: error= 1.42D-05 at cycle   5 NSaved=   5.
 NSaved= 5 IEnMin= 5 EnMin= -3056.80555161026     IErMin= 5 ErrMin= 1.42D-05
 ErrMax= 1.42D-05  0.00D+00 EMaxC= 1.00D-01 BMatC= 1.31D-08 BMatP= 3.93D-07
 IDIUse=1 WtCom= 1.00D+00 WtEn= 0.00D+00
 Coeff-Com: -0.756D-03 0.313D-01-0.993D-01-0.131D+00 0.120D+01
 Coeff:     -0.756D-03 0.313D-01-0.993D-01-0.131D+00 0.120D+01
 Gap=     0.432 Goal=   None    Shift=    0.000
 DSYEVD-2 returned Info=         103 IAlg= 4 N=    51 NDim=    51 NE2=     2038596 trying  DSYEV.
 RMSDP=6.89D-06 MaxDP=8.10D-05 DE=-9.59D-07 OVMax= 0.00D+00

 Cycle   6  Pass 1  IDiag  1:
 E= -3056.80555165112     Delta-E=       -0.000000040864 Rises=F Damp=F
 DIIS: error= 3.16D-06 at cycle   6 NSaved=   6.
 NSaved= 6 IEnMin= 6 EnMin= -3056.80555165112     IErMin= 6 ErrMin= 3.16D-06
 ErrMax= 3.16D-06  0.00D+00 EMaxC= 1.00D-01 BMatC= 4.97D-10 BMatP= 1.31D-08
 IDIUse=1 WtCom= 1.00D+00 WtEn= 0.00D+00
 Coeff-Com: -0.489D-03 0.773D-02-0.145D-01-0.472D-01 0.152D+00 0.902D+00
 Coeff:     -0.489D-03 0.773D-02-0.145D-01-0.472D-01 0.152D+00 0.902D+00
 Gap=     0.432 Goal=   None    Shift=    0.000
 RMSDP=9.88D-07 MaxDP=1.00D-05 DE=-4.09D-08 OVMax= 0.00D+00

 Cycle   7  Pass 1  IDiag  1:
 E= -3056.80555165199     Delta-E=       -0.000000000867 Rises=F Damp=F
 DIIS: error= 7.13D-07 at cycle   7 NSaved=   7.
 NSaved= 7 IEnMin= 7 EnMin= -3056.80555165199     IErMin= 7 ErrMin= 7.13D-07
 ErrMax= 7.13D-07  0.00D+00 EMaxC= 1.00D-01 BMatC= 2.74D-11 BMatP= 4.97D-10
 IDIUse=1 WtCom= 1.00D+00 WtEn= 0.00D+00
 Coeff-Com:  0.332D-04-0.140D-02 0.479D-02 0.314D-02-0.611D-01 0.515D-01
 Coeff-Com:  0.100D+01
 Coeff:      0.332D-04-0.140D-02 0.479D-02 0.314D-02-0.611D-01 0.515D-01
 Coeff:      0.100D+01
 Gap=     0.432 Goal=   None    Shift=    0.000
 DSYEVD-2 returned Info=         103 IAlg= 4 N=    51 NDim=    51 NE2=     2038596 trying  DSYEV.
 RMSDP=2.92D-07 MaxDP=2.65D-06 DE=-8.67D-10 OVMax= 0.00D+00

 Cycle   8  Pass 1  IDiag  1:
 E= -3056.80555165205     Delta-E=       -0.000000000059 Rises=F Damp=F
 DIIS: error= 1.41D-07 at cycle   8 NSaved=   8.
 NSaved= 8 IEnMin= 8 EnMin= -3056.80555165205     IErMin= 8 ErrMin= 1.41D-07
 ErrMax= 1.41D-07  0.00D+00 EMaxC= 1.00D-01 BMatC= 7.34D-13 BMatP= 2.74D-11
 IDIUse=1 WtCom= 1.00D+00 WtEn= 0.00D+00
 Coeff-Com:  0.203D-04-0.342D-03 0.826D-03 0.154D-02-0.857D-02-0.269D-01
 Coeff-Com:  0.572D-01 0.976D+00
 Coeff:      0.203D-04-0.342D-03 0.826D-03 0.154D-02-0.857D-02-0.269D-01
 Coeff:      0.572D-01 0.976D+00
 Gap=     0.432 Goal=   None    Shift=    0.000
 RMSDP=5.22D-08 MaxDP=5.64D-07 DE=-5.91D-11 OVMax= 0.00D+00

 Cycle   9  Pass 1  IDiag  1:
 E= -3056.80555165205     Delta-E=       -0.000000000002 Rises=F Damp=F
 DIIS: error= 2.47D-08 at cycle   9 NSaved=   9.
 NSaved= 9 IEnMin= 9 EnMin= -3056.80555165205     IErMin= 9 ErrMin= 2.47D-08
 ErrMax= 2.47D-08  0.00D+00 EMaxC= 1.00D-01 BMatC= 2.34D-14 BMatP= 7.34D-13
 IDIUse=1 WtCom= 1.00D+00 WtEn= 0.00D+00
 Coeff-Com: -0.244D-05 0.950D-04-0.286D-03-0.346D-03 0.362D-02 0.677D-04
 Coeff-Com: -0.438D-01-0.968D-01 0.114D+01
 Coeff:     -0.244D-05 0.950D-04-0.286D-03-0.346D-03 0.362D-02 0.677D-04
 Coeff:     -0.438D-01-0.968D-01 0.114D+01
 Gap=     0.432 Goal=   None    Shift=    0.000
 RMSDP=1.09D-08 MaxDP=1.23D-07 DE=-1.82D-12 OVMax= 0.00D+00

 Cycle  10  Pass 1  IDiag  1:
 E= -3056.80555165205     Delta-E=       -0.000000000004 Rises=F Damp=F
 DIIS: error= 5.55D-09 at cycle  10 NSaved=  10.
 NSaved=10 IEnMin=10 EnMin= -3056.80555165205     IErMin=10 ErrMin= 5.55D-09
 ErrMax= 5.55D-09  0.00D+00 EMaxC= 1.00D-01 BMatC= 8.44D-16 BMatP= 2.34D-14
 IDIUse=1 WtCom= 1.00D+00 WtEn= 0.00D+00
 Coeff-Com:  0.393D-06-0.207D-04 0.640D-04 0.634D-04-0.794D-03-0.111D-03
 Coeff-Com:  0.126D-01 0.706D-02-0.318D+00 0.130D+01
 Coeff:      0.393D-06-0.207D-04 0.640D-04 0.634D-04-0.794D-03-0.111D-03
 Coeff:      0.126D-01 0.706D-02-0.318D+00 0.130D+01
 Gap=     0.432 Goal=   None    Shift=    0.000
 RMSDP=1.58D-09 MaxDP=1.39D-08 DE=-3.64D-12 OVMax= 0.00D+00

 SCF Done:  E(RHF) =  -3056.80555165     A.U. after   10 cycles
            NFock= 10  Conv=0.16D-08     -V/T= 1.9973
 KE= 3.065161220786D+03 PE=-7.676237404371D+03 EE= 1.383665107706D+03
 Leave Link  502 at Wed Aug 28 16:21:34 2024, MaxMem=   104857600 cpu:               0.1 elap:               0.3
 (Enter /gpfs/fs1/soft/improv/software/custom-built/gaussian/g16/l801.exe)
 Range of M.O.s used for correlation:     1    51
 NBasis=    51 NAE=    31 NBE=    31 NFC=     0 NFV=     0
 NROrb=     51 NOA=    31 NOB=    31 NVA=    20 NVB=    20

 **** Warning!!: The largest alpha MO coefficient is  0.10771469D+02

 Leave Link  801 at Wed Aug 28 16:21:34 2024, MaxMem=   104857600 cpu:               0.0 elap:               0.1
 (Enter /gpfs/fs1/soft/improv/software/custom-built/gaussian/g16/l1101.exe)
 Leave Link 1101 at Wed Aug 28 16:21:35 2024, MaxMem=   104857600 cpu:               0.0 elap:               0.0
 (Enter /gpfs/fs1/soft/improv/software/custom-built/gaussian/g16/l1102.exe)
 Symmetrizing basis deriv contribution to polar:
 IMax=3 JMax=2 DiffMx= 0.00D+00
 Leave Link 1102 at Wed Aug 28 16:21:35 2024, MaxMem=   104857600 cpu:               0.0 elap:               0.0
 (Enter /gpfs/fs1/soft/improv/software/custom-built/gaussian/g16/l1110.exe)
 Leave Link 1110 at Wed Aug 28 16:21:35 2024, MaxMem=   104857600 cpu:               0.0 elap:               0.1
 (Enter /gpfs/fs1/soft/improv/software/custom-built/gaussian/g16/l1002.exe)
 Minotr:  Closed shell wavefunction.
 Leave Link 1002 at Wed Aug 28 16:21:36 2024, MaxMem=   104857600 cpu:               0.0 elap:               0.1
 (Enter /gpfs/fs1/soft/improv/software/custom-built/gaussian/g16/l601.exe)
 Copying SCF densities to generalized density rwf, IOpCl= 0 IROHF=0.

 **********************************************************************

            Population analysis using the SCF Density.

 **********************************************************************

 Alpha  occ. eigenvalues -- -486.50541-103.84737 -64.51901 -57.70498 -57.70430
 Alpha  occ. eigenvalues --  -57.70430 -11.12165 -10.23690  -9.51212  -7.70011
 Alpha  occ. eigenvalues --   -7.69863  -7.69863  -7.08899  -7.08559  -7.08559
 Alpha  occ. eigenvalues --   -2.81731  -2.81588  -2.81588  -2.81205  -2.81205
 Alpha  occ. eigenvalues --   -0.85997  -0.78861  -0.71649  -0.49293  -0.49283
 Alpha  occ. eigenvalues --   -0.26790  -0.22411  -0.22411  -0.17916  -0.17916
 Alpha  occ. eigenvalues --   -0.16098
 Alpha virt. eigenvalues --    0.27078   0.41175   0.47533   0.47536   0.90921
 Alpha virt. eigenvalues --    0.98738   0.98748   0.99779   1.04092   1.04094
 Alpha virt. eigenvalues --    1.09592   1.13063   1.13071   1.14389   1.38844
 Alpha virt. eigenvalues --    1.49010   1.49019   1.49215   1.98905  24.33952
          Condensed to atoms (all electrons):
               1          2          3          4          5          6
     1  C    5.209252   0.372162   0.372162   0.372179   0.033014   0.059452
     2  H    0.372162   0.411402  -0.018006  -0.017961  -0.019483  -0.011648
     3  H    0.372162  -0.018006   0.411402  -0.017961  -0.019483  -0.011648
     4  H    0.372179  -0.017961  -0.017961   0.411345  -0.019482  -0.011651
     5  Cl   0.033014  -0.019483  -0.019483  -0.019482  17.744231   0.002659
     6  Br   0.059452  -0.011648  -0.011648  -0.011651   0.002659  35.683760
 Mulliken charges:
               1
     1  C   -0.418221
     2  H    0.283535
     3  H    0.283535
     4  H    0.283531
     5  Cl  -0.721456
     6  Br  -0.710924
 Sum of Mulliken charges =  -1.00000
 Mulliken charges with hydrogens summed into heavy atoms:
               1
     1  C    0.432380
     5  Cl  -0.721456
     6  Br  -0.710924
 Electronic spatial extent (au):  <R**2>=           1157.4159
 Charge=             -1.0000 electrons
 Dipole moment (field-independent basis, Debye):
    X=             -0.5518    Y=              1.6509    Z=             -3.5371  Tot=              3.9422
 Quadrupole moment (field-independent basis, Debye-Ang):
   XX=            -42.3476   YY=            -49.8301   ZZ=            -80.0791
   XY=              2.8177   XZ=             -6.0362   YZ=             18.0481
 Traceless Quadrupole moment (field-independent basis, Debye-Ang):
   XX=             15.0713   YY=              7.5888   ZZ=            -22.6602
   XY=              2.8177   XZ=             -6.0362   YZ=             18.0481
 Octapole moment (field-independent basis, Debye-Ang**2):
  XXX=             -8.3939  YYY=             34.2080  ZZZ=           -141.7358  XYY=             -6.3396
  XXY=             10.5398  XXZ=            -20.5733  XZZ=            -16.4786  YZZ=             48.5685
  YYZ=            -37.6417  XYZ=              5.8630
 Hexadecapole moment (field-independent basis, Debye-Ang**3):
 XXXX=            -78.1085 YYYY=           -296.8334 ZZZZ=          -1397.2591 XXXY=             39.4173
 XXXZ=            -83.6812 YYYX=             43.7770 YYYZ=            277.0070 ZZZX=           -127.1456
 ZZZY=            378.4029 XXYY=            -62.7532 XXZZ=           -206.0666 YYZZ=           -294.9248
 XXYZ=             86.6679 YYXZ=            -37.3778 ZZXY=             32.6427
 N-N= 1.706055242277D+02 E-N=-7.676237404373D+03  KE= 3.065161220786D+03
  Exact polarizability:       0.000       0.000       0.000       0.000       0.000       0.000
 Approx polarizability:      12.710      -2.911      20.440       6.240     -18.655      51.707
 No NMR shielding tensors so no spin-rotation constants.
 Leave Link  601 at Wed Aug 28 16:21:36 2024, MaxMem=   104857600 cpu:               0.1 elap:               0.1
 (Enter /gpfs/fs1/soft/improv/software/custom-built/gaussian/g16/l701.exe)
 ... and contract with generalized density number  0.
 Compute integral first derivatives.
 Leave Link  701 at Wed Aug 28 16:21:36 2024, MaxMem=   104857600 cpu:               0.1 elap:               0.1
 (Enter /gpfs/fs1/soft/improv/software/custom-built/gaussian/g16/l702.exe)
 L702 exits ... SP integral derivatives will be done elsewhere.
 Leave Link  702 at Wed Aug 28 16:21:37 2024, MaxMem=   104857600 cpu:               0.0 elap:               0.0
 (Enter /gpfs/fs1/soft/improv/software/custom-built/gaussian/g16/l703.exe)
 Integral derivatives from FoFJK, PRISM(SPDF).
 Compute integral first derivatives, UseDBF=F ICtDFT=           0.
 Calling FoFJK, ICntrl=      2127 FMM=F ISym2X=0 I1Cent= 0 IOpClX= 0 NMat=1 NMatS=1 NMatT=0.
 FoFJK:  IHMeth= 1 ICntrl=    2127 DoSepK=F KAlg= 0 I1Cent=           0 FoldK=F
 IRaf=         0 NMat=       1 IRICut=       1 DoRegI=T DoRafI=F ISym2E= 0 IDoP0=0 IntGTp=1.
 FoFCou: FMM=F IPFlag=           0 FMFlag=      100000 FMFlg1=         800
         NFxFlg=           0 DoJE=F BraDBF=F KetDBF=F FulRan=T
         wScrn=  0.000000 ICntrl=      2127 IOpCl=  0 I1Cent=           0 NGrid=           0
         NMat0=    1 NMatS0=      1 NMatT0=    0 NMatD0=    1 NMtDS0=    0 NMtDT0=    0
 Symmetry not used in FoFCou.
 Leave Link  703 at Wed Aug 28 16:21:37 2024, MaxMem=   104857600 cpu:               0.2 elap:               0.2
 (Enter /gpfs/fs1/soft/improv/software/custom-built/gaussian/g16/l716.exe)
 Dipole        =-2.17106254D-01 6.49497828D-01-1.39160684D+00
 Polarizability= 0.00000000D+00 0.00000000D+00 0.00000000D+00
                 0.00000000D+00 0.00000000D+00 0.00000000D+00
 -------------------------------------------------------------------
 Center     Atomic                   Forces (Hartrees/Bohr)
 Number     Number              X              Y              Z
 -------------------------------------------------------------------
      1        6          -0.000736503    0.002064071   -0.004452126
      2        1           0.000420480   -0.000299332   -0.000141274
      3        1           0.000174851    0.000443244    0.000243610
      4        1          -0.000536003   -0.000205172    0.000053690
      5       17           0.000263138   -0.000774741    0.001662611
      6       35           0.000414036   -0.001228069    0.002633489
 -------------------------------------------------------------------
 Cartesian Forces:  Max     0.004452126 RMS     0.001444873
 Leave Link  716 at Wed Aug 28 16:21:37 2024, MaxMem=   104857600 cpu:               0.0 elap:               0.0
 (Enter /gpfs/fs1/soft/improv/software/custom-built/gaussian/g16/l123.exe)
 IRC-IRC-IRC-IRC-IRC-IRC-IRC-IRC-IRC-IRC-IRC-IRC-IRC-IRC-IRC-IRC-IRC-IRC
 Pt  1 Step number   1 out of a maximum of  20
 Using modified Bulirsch-Stoer corrector integration.
   Using distance weighted interpolants to fit PES.
 PreDWI: IReCr0= 1 IReCr1= 1 IReCr2= 1 IReCr3= 1
 Modified Bulirsch-Stoer Extrapolation Cycles:
    EPS =    0.000010000000000
    Cycle     1 NS=    48
      PEZero:  N= 2 I= 1 D=  9.06D-04 Err=  6.72D-03
    Cycle     2 NS=    64 Truncation Error =  0.006718342
      PEZero:  N= 3 I= 2 D=  9.06D-04 Err=  1.76D-03
      PEZero:  N= 3 I= 1 D=  1.81D-03 Err=  4.08D-03
    Cycle     3 NS=    96 Truncation Error =  0.001755986
      PEZero:  N= 4 I= 3 D=  4.53D-04 Err=  1.21D-03
      PEZero:  N= 4 I= 2 D=  1.36D-03 Err=  1.41D-04
      PEZero:  N= 4 I= 1 D=  2.27D-03 Err=  1.22D-03
    Cycle     4 NS=   128 Truncation Error =  0.000140635
      PEZero:  N= 5 I= 4 D=  4.53D-04 Err=  7.95D-04
      PEZero:  N= 5 I= 3 D=  9.06D-04 Err=  1.95D-05
      PEZero:  N= 5 I= 2 D=  1.81D-03 Err=  5.08D-05
    Cycle     5 NS=   192 Truncation Error =  0.000019468
      PEZero:  N= 6 I= 5 D=  2.27D-04 Err=  5.92D-04
      PEZero:  N= 6 I= 4 D=  6.80D-04 Err=  5.53D-06
      PEZero:  N= 6 I= 3 D=  1.13D-03 Err=  5.05D-06
      PEZero:  N= 6 I= 2 D=  2.04D-03 Err=  5.14D-05
    Cycle     6 NS=   256 Truncation Error =  0.000005047
 BS completed in    6 cycles and     784 integration steps.
 Maximum DWI energy   std dev =  0.000001830 at pt    34
 Maximum DWI gradient std dev =  0.324350082 at pt     4
 SUMMARY OF CORRECTOR INTEGRATION:
   Predictor End Point Energy = -3056.805552
   Old End Point Energy       = -3056.805552
   Corrected End Point Energy = -3056.805553
   Predictor End-Start Dist.  =     0.347932
   Old End-Start Dist.        =     0.347932
   New End-Start Dist.        =     0.347752
   New End-Old End Dist.      =     0.004183
 Point Number:   1          Path Number:   1
                    CURRENT STRUCTURE
                Cartesian Coordinates (Ang):                
 ---------------------------------------------------------------------
 Center     Atomic                     Coordinates (Angstroms)
 Number     Number                        X           Y           Z
 ---------------------------------------------------------------------
      1          6                    0.129642   -0.387179    0.829705
      2          1                   -0.634089    0.233321    1.224942
      3          1                   -0.116526   -1.331168    0.414010
      4          1                    1.134436   -0.048409    0.817426
      5         17                    0.460626   -1.377235    2.951013
      6         35                   -0.228721    0.683773   -1.465145
 ---------------------------------------------------------------------
   CHANGE IN THE REACTION COORDINATE =    0.34775
   NET REACTION COORDINATE UP TO THIS POINT =    0.34775
  # OF POINTS ALONG THE PATH =   1
  # OF STEPS =   1

 Calculating another point on the path.
 Point Number  2 in FORWARD path direction.
 Using LQA Reaction Path Following.
   LQA: T_Est iteration completed in    3 iterations.
 IRC-IRC-IRC-IRC-IRC-IRC-IRC-IRC-IRC-IRC-IRC-IRC-IRC-IRC-IRC-IRC-IRC-IRC
 Leave Link  123 at Wed Aug 28 16:21:37 2024, MaxMem=   104857600 cpu:               0.1 elap:               0.1
 (Enter /gpfs/fs1/soft/improv/software/custom-built/gaussian/g16/l202.exe)
                          Input orientation:                          
 ---------------------------------------------------------------------
 Center     Atomic      Atomic             Coordinates (Angstroms)
 Number     Number       Type             X           Y           Z
 ---------------------------------------------------------------------
      1          6           0        0.122601   -0.366206    0.784750
      2          1           0       -0.636039    0.237336    1.218122
      3          1           0       -0.117936   -1.328785    0.406344
      4          1           0        1.134329   -0.044684    0.810171
      5         17           0        0.461627   -1.380216    2.957404
      6         35           0       -0.228054    0.681788   -1.460889
 ---------------------------------------------------------------------
                    Distance matrix (angstroms):
                    1          2          3          4          5
     1  C    0.000000
     2  H    1.061889   0.000000
     3  H    1.061889   1.838519   0.000000
     4  H    1.061893   1.838521   1.838521   0.000000
     5  Cl   2.421483   2.616571   2.616571   2.616636   0.000000
     6  Br   2.502827   2.746105   2.746105   2.746191   4.924311
                    6
     6  Br   0.000000
 Symmetry turned off by external request.
 Stoichiometry    CH3BrCl(1-)
 Framework group  C1[X(CH3BrCl)]
 Deg. of freedom    12
 Full point group                 C1      NOp   1
 Rotational constants (GHZ):         148.3525780           0.8388235           0.8388235
 Leave Link  202 at Wed Aug 28 16:21:37 2024, MaxMem=   104857600 cpu:               0.0 elap:               0.0
 (Enter /gpfs/fs1/soft/improv/software/custom-built/gaussian/g16/l301.exe)
 Basis read from rwf:  (6D, 7F)
 No pseudopotential information found on rwf file.
    51 basis functions,   108 primitive gaussians,    51 cartesian basis functions
    31 alpha electrons       31 beta electrons
       nuclear repulsion energy       171.0122778453 Hartrees.
 IExCor=    0 DFT=F Ex=HF Corr=None ExCW=0 ScaHFX=  1.000000
 ScaDFX=  1.000000  1.000000  1.000000  1.000000 ScalE2=  1.000000  1.000000
 IRadAn=      5 IRanWt=     -1 IRanGd=            0 ICorTp=0 IEmpDi=  4
 NAtoms=    6 NActive=    6 NUniq=    6 SFac= 1.00D+00 NAtFMM=   60 NAOKFM=F Big=F
 Integral buffers will be    131072 words long.
 Raffenetti 1 integral format.
 Two-electron integral symmetry is turned off.
 No density basis found on file    724.
 Leave Link  301 at Wed Aug 28 16:21:38 2024, MaxMem=   104857600 cpu:               0.0 elap:               0.0
 (Enter /gpfs/fs1/soft/improv/software/custom-built/gaussian/g16/l302.exe)
 NPDir=0 NMtPBC=     1 NCelOv=     1 NCel=       1 NClECP=     1 NCelD=      1
         NCelK=      1 NCelE2=     1 NClLst=     1 CellRange=     0.0.
 One-electron integrals computed using PRISM.
 NBasis=    51 RedAO= T EigKep=  4.89D-03  NBF=    51
 NBsUse=    51 1.00D-06 EigRej= -1.00D+00 NBFU=    51
 Leave Link  302 at Wed Aug 28 16:21:38 2024, MaxMem=   104857600 cpu:               0.0 elap:               0.0
 (Enter /gpfs/fs1/soft/improv/software/custom-built/gaussian/g16/l303.exe)
 DipDrv:  MaxL=1.
 Leave Link  303 at Wed Aug 28 16:21:38 2024, MaxMem=   104857600 cpu:               0.0 elap:               0.0
 (Enter /gpfs/fs1/soft/improv/software/custom-built/gaussian/g16/l401.exe)
 Initial guess from the checkpoint file:  "example1_IRC.chk"
 B after Tr=    -0.000159    0.000482   -0.001032
         Rot=    1.000000   -0.000000    0.000000    0.000000 Ang=   0.00 deg.
 Guess basis will be translated and rotated to current coordinates.
 JPrj=2 DoOrth=T DoCkMO=T.
 Generating alternative initial guess.
 ExpMin= 1.65D-01 ExpMax= 6.10D+03 ExpMxC= 6.10D+03 IAcc=3 IRadAn=         5 AccDes= 0.00D+00
 Harris functional with IExCor=  205 and IRadAn=       5 diagonalized for initial guess.
 HarFok:  IExCor=  205 AccDes= 0.00D+00 IRadAn=         5 IDoV= 1 UseB2=F ITyADJ=14
 ICtDFT=  3500011 ScaDFX=  1.000000  1.000000  1.000000  1.000000
 FoFCou: FMM=F IPFlag=           0 FMFlag=      100000 FMFlg1=           0
         NFxFlg=           0 DoJE=T BraDBF=F KetDBF=T FulRan=T
         wScrn=  0.000000 ICntrl=       500 IOpCl=  0 I1Cent=   200000004 NGrid=           0
         NMat0=    1 NMatS0=      1 NMatT0=    0 NMatD0=    1 NMtDS0=    0 NMtDT0=    0
 Symmetry not used in FoFCou.
 Harris En= -3055.70194903940    
 Leave Link  401 at Wed Aug 28 16:21:38 2024, MaxMem=   104857600 cpu:               0.2 elap:               0.3
 (Enter /gpfs/fs1/soft/improv/software/custom-built/gaussian/g16/l502.exe)
 Keep R1 ints in memory in canonical form, NReq=1713103.
 FoFCou: FMM=F IPFlag=           0 FMFlag=           0 FMFlg1=           0
         NFxFlg=           0 DoJE=F BraDBF=F KetDBF=F FulRan=T
         wScrn=  0.000000 ICntrl=       600 IOpCl=  0 I1Cent=           0 NGrid=           0
         NMat0=    1 NMatS0=   1326 NMatT0=    0 NMatD0=    1 NMtDS0=    0 NMtDT0=    0
 Symmetry not used in FoFCou.
 Two-electron integral symmetry not used.
 Closed shell SCF:
 Using DIIS extrapolation, IDIIS=  1040.
 NGot=   104857600 LenX=   103971534 LenY=   103968492
 Requested convergence on RMS density matrix=1.00D-08 within 128 cycles.
 Requested convergence on MAX density matrix=1.00D-06.
 Requested convergence on             energy=1.00D-06.
 No special actions if energy rises.

 Cycle   1  Pass 1  IDiag  1:
 E= -3056.80524998878    
 DIIS: error= 2.64D-03 at cycle   1 NSaved=   1.
 NSaved= 1 IEnMin= 1 EnMin= -3056.80524998878     IErMin= 1 ErrMin= 2.64D-03
 ErrMax= 2.64D-03  0.00D+00 EMaxC= 1.00D-01 BMatC= 5.20D-04 BMatP= 5.20D-04
 IDIUse=3 WtCom= 9.74D-01 WtEn= 2.64D-02
 Coeff-Com:  0.100D+01
 Coeff-En:   0.100D+01
 Coeff:      0.100D+01
 Gap=     0.706 Goal=   None    Shift=    0.000
 GapD=    0.706 DampG=2.000 DampE=1.000 DampFc=2.0000 IDamp=-1.
 RMSDP=7.64D-04 MaxDP=7.07D-03              OVMax= 0.00D+00

 Cycle   2  Pass 1  IDiag  1:
 E= -3056.80619264558     Delta-E=       -0.000942656799 Rises=F Damp=F
 DIIS: error= 8.00D-04 at cycle   2 NSaved=   2.
 NSaved= 2 IEnMin= 2 EnMin= -3056.80619264558     IErMin= 2 ErrMin= 8.00D-04
 ErrMax= 8.00D-04  0.00D+00 EMaxC= 1.00D-01 BMatC= 4.03D-05 BMatP= 5.20D-04
 IDIUse=3 WtCom= 9.92D-01 WtEn= 8.00D-03
 Coeff-Com: -0.164D+00 0.116D+01
 Coeff-En:   0.000D+00 0.100D+01
 Coeff:     -0.163D+00 0.116D+01
 Gap=     0.435 Goal=   None    Shift=    0.000
 RMSDP=3.75D-04 MaxDP=3.72D-03 DE=-9.43D-04 OVMax= 0.00D+00

 Cycle   3  Pass 1  IDiag  1:
 E= -3056.80632438660     Delta-E=       -0.000131741019 Rises=F Damp=F
 DIIS: error= 2.17D-04 at cycle   3 NSaved=   3.
 NSaved= 3 IEnMin= 3 EnMin= -3056.80632438660     IErMin= 3 ErrMin= 2.17D-04
 ErrMax= 2.17D-04  0.00D+00 EMaxC= 1.00D-01 BMatC= 3.25D-06 BMatP= 4.03D-05
 IDIUse=3 WtCom= 9.98D-01 WtEn= 2.17D-03
 Coeff-Com: -0.236D-03-0.260D+00 0.126D+01
 Coeff-En:   0.000D+00 0.000D+00 0.100D+01
 Coeff:     -0.235D-03-0.259D+00 0.126D+01
 Gap=     0.435 Goal=   None    Shift=    0.000
 RMSDP=1.43D-04 MaxDP=1.28D-03 DE=-1.32D-04 OVMax= 0.00D+00

 Cycle   4  Pass 1  IDiag  1:
 E= -3056.80633960751     Delta-E=       -0.000015220909 Rises=F Damp=F
 DIIS: error= 8.57D-05 at cycle   4 NSaved=   4.
 NSaved= 4 IEnMin= 4 EnMin= -3056.80633960751     IErMin= 4 ErrMin= 8.57D-05
 ErrMax= 8.57D-05  0.00D+00 EMaxC= 1.00D-01 BMatC= 3.77D-07 BMatP= 3.25D-06
 IDIUse=1 WtCom= 1.00D+00 WtEn= 0.00D+00
 Coeff-Com:  0.133D-01-0.131D+00 0.143D+00 0.975D+00
 Coeff:      0.133D-01-0.131D+00 0.143D+00 0.975D+00
 Gap=     0.435 Goal=   None    Shift=    0.000
 RMSDP=3.57D-05 MaxDP=3.13D-04 DE=-1.52D-05 OVMax= 0.00D+00

 Cycle   5  Pass 1  IDiag  1:
 E= -3056.80634054141     Delta-E=       -0.000000933906 Rises=F Damp=F
 DIIS: error= 1.42D-05 at cycle   5 NSaved=   5.
 NSaved= 5 IEnMin= 5 EnMin= -3056.80634054141     IErMin= 5 ErrMin= 1.42D-05
 ErrMax= 1.42D-05  0.00D+00 EMaxC= 1.00D-01 BMatC= 1.11D-08 BMatP= 3.77D-07
 IDIUse=1 WtCom= 1.00D+00 WtEn= 0.00D+00
 Coeff-Com: -0.130D-02 0.347D-01-0.945D-01-0.167D+00 0.123D+01
 Coeff:     -0.130D-02 0.347D-01-0.945D-01-0.167D+00 0.123D+01
 Gap=     0.435 Goal=   None    Shift=    0.000
 RMSDP=6.61D-06 MaxDP=7.42D-05 DE=-9.34D-07 OVMax= 0.00D+00

 Cycle   6  Pass 1  IDiag  1:
 E= -3056.80634057852     Delta-E=       -0.000000037111 Rises=F Damp=F
 DIIS: error= 1.90D-06 at cycle   6 NSaved=   6.
 NSaved= 6 IEnMin= 6 EnMin= -3056.80634057852     IErMin= 6 ErrMin= 1.90D-06
 ErrMax= 1.90D-06  0.00D+00 EMaxC= 1.00D-01 BMatC= 1.87D-10 BMatP= 1.11D-08
 IDIUse=1 WtCom= 1.00D+00 WtEn= 0.00D+00
 Coeff-Com: -0.175D-03 0.100D-02 0.221D-02-0.159D-01-0.495D-01 0.106D+01
 Coeff:     -0.175D-03 0.100D-02 0.221D-02-0.159D-01-0.495D-01 0.106D+01
 Gap=     0.435 Goal=   None    Shift=    0.000
 RMSDP=8.98D-07 MaxDP=9.21D-06 DE=-3.71D-08 OVMax= 0.00D+00

 Cycle   7  Pass 1  IDiag  1:
 E= -3056.80634057902     Delta-E=       -0.000000000500 Rises=F Damp=F
 DIIS: error= 3.93D-07 at cycle   7 NSaved=   7.
 NSaved= 7 IEnMin= 7 EnMin= -3056.80634057902     IErMin= 7 ErrMin= 3.93D-07
 ErrMax= 3.93D-07  0.00D+00 EMaxC= 1.00D-01 BMatC= 7.59D-12 BMatP= 1.87D-10
 IDIUse=1 WtCom= 1.00D+00 WtEn= 0.00D+00
 Coeff-Com:  0.563D-04-0.133D-02 0.367D-02 0.519D-02-0.473D-01 0.664D-02
 Coeff-Com:  0.103D+01
 Coeff:      0.563D-04-0.133D-02 0.367D-02 0.519D-02-0.473D-01 0.664D-02
 Coeff:      0.103D+01
 Gap=     0.435 Goal=   None    Shift=    0.000
 RMSDP=1.96D-07 MaxDP=2.20D-06 DE=-5.00D-10 OVMax= 0.00D+00

 Cycle   8  Pass 1  IDiag  1:
 E= -3056.80634057904     Delta-E=       -0.000000000014 Rises=F Damp=F
 DIIS: error= 7.83D-08 at cycle   8 NSaved=   8.
 NSaved= 8 IEnMin= 8 EnMin= -3056.80634057904     IErMin= 8 ErrMin= 7.83D-08
 ErrMax= 7.83D-08  0.00D+00 EMaxC= 1.00D-01 BMatC= 2.04D-13 BMatP= 7.59D-12
 IDIUse=1 WtCom= 1.00D+00 WtEn= 0.00D+00
 Coeff-Com:  0.365D-05 0.267D-04-0.154D-03 0.648D-04 0.294D-02-0.221D-01
 Coeff-Com: -0.394D-01 0.106D+01
 Coeff:      0.365D-05 0.267D-04-0.154D-03 0.648D-04 0.294D-02-0.221D-01
 Coeff:     -0.394D-01 0.106D+01
 Gap=     0.435 Goal=   None    Shift=    0.000
 RMSDP=2.95D-08 MaxDP=3.71D-07 DE=-1.41D-11 OVMax= 0.00D+00

 Cycle   9  Pass 1  IDiag  1:
 E= -3056.80634057904     Delta-E=       -0.000000000005 Rises=F Damp=F
 DIIS: error= 2.86D-08 at cycle   9 NSaved=   9.
 NSaved= 9 IEnMin= 9 EnMin= -3056.80634057904     IErMin= 9 ErrMin= 2.86D-08
 ErrMax= 2.86D-08  0.00D+00 EMaxC= 1.00D-01 BMatC= 2.11D-14 BMatP= 2.04D-13
 IDIUse=1 WtCom= 1.00D+00 WtEn= 0.00D+00
 Coeff-Com: -0.200D-05 0.850D-04-0.256D-03-0.308D-03 0.347D-02-0.508D-02
 Coeff-Com: -0.677D-01 0.228D+00 0.842D+00
 Coeff:     -0.200D-05 0.850D-04-0.256D-03-0.308D-03 0.347D-02-0.508D-02
 Coeff:     -0.677D-01 0.228D+00 0.842D+00
 Gap=     0.435 Goal=   None    Shift=    0.000
 RMSDP=4.77D-09 MaxDP=4.81D-08 DE=-5.46D-12 OVMax= 0.00D+00

 SCF Done:  E(RHF) =  -3056.80634058     A.U. after    9 cycles
            NFock=  9  Conv=0.48D-08     -V/T= 1.9973
 KE= 3.065144902922D+03 PE=-7.676823048398D+03 EE= 1.383859527052D+03
 Leave Link  502 at Wed Aug 28 16:21:38 2024, MaxMem=   104857600 cpu:               0.1 elap:               0.1
 (Enter /gpfs/fs1/soft/improv/software/custom-built/gaussian/g16/l801.exe)
 Range of M.O.s used for correlation:     1    51
 NBasis=    51 NAE=    31 NBE=    31 NFC=     0 NFV=     0
 NROrb=     51 NOA=    31 NOB=    31 NVA=    20 NVB=    20

 **** Warning!!: The largest alpha MO coefficient is  0.10774697D+02

 Leave Link  801 at Wed Aug 28 16:21:39 2024, MaxMem=   104857600 cpu:               0.0 elap:               0.2
 (Enter /gpfs/fs1/soft/improv/software/custom-built/gaussian/g16/l1101.exe)
 Leave Link 1101 at Wed Aug 28 16:21:39 2024, MaxMem=   104857600 cpu:               0.0 elap:               0.1
 (Enter /gpfs/fs1/soft/improv/software/custom-built/gaussian/g16/l1102.exe)
 Symmetrizing basis deriv contribution to polar:
 IMax=3 JMax=2 DiffMx= 0.00D+00
 Leave Link 1102 at Wed Aug 28 16:21:39 2024, MaxMem=   104857600 cpu:               0.0 elap:               0.0
 (Enter /gpfs/fs1/soft/improv/software/custom-built/gaussian/g16/l1110.exe)
 Leave Link 1110 at Wed Aug 28 16:21:39 2024, MaxMem=   104857600 cpu:               0.0 elap:               0.0
 (Enter /gpfs/fs1/soft/improv/software/custom-built/gaussian/g16/l1002.exe)
 Minotr:  Closed shell wavefunction.
 Leave Link 1002 at Wed Aug 28 16:21:39 2024, MaxMem=   104857600 cpu:               0.0 elap:               0.0
 (Enter /gpfs/fs1/soft/improv/software/custom-built/gaussian/g16/l701.exe)
 ... and contract with generalized density number  0.
 Compute integral first derivatives.
 Leave Link  701 at Wed Aug 28 16:21:39 2024, MaxMem=   104857600 cpu:               0.0 elap:               0.0
 (Enter /gpfs/fs1/soft/improv/software/custom-built/gaussian/g16/l702.exe)
 L702 exits ... SP integral derivatives will be done elsewhere.
 Leave Link  702 at Wed Aug 28 16:21:39 2024, MaxMem=   104857600 cpu:               0.0 elap:               0.0
 (Enter /gpfs/fs1/soft/improv/software/custom-built/gaussian/g16/l703.exe)
 Integral derivatives from FoFJK, PRISM(SPDF).
 Compute integral first derivatives, UseDBF=F ICtDFT=           0.
 Calling FoFJK, ICntrl=      2127 FMM=F ISym2X=0 I1Cent= 0 IOpClX= 0 NMat=1 NMatS=1 NMatT=0.
 FoFJK:  IHMeth= 1 ICntrl=    2127 DoSepK=F KAlg= 0 I1Cent=           0 FoldK=F
 IRaf=         0 NMat=       1 IRICut=       1 DoRegI=T DoRafI=F ISym2E= 0 IDoP0=0 IntGTp=1.
 FoFCou: FMM=F IPFlag=           0 FMFlag=      100000 FMFlg1=         800
         NFxFlg=           0 DoJE=F BraDBF=F KetDBF=F FulRan=T
         wScrn=  0.000000 ICntrl=      2127 IOpCl=  0 I1Cent=           0 NGrid=           0
         NMat0=    1 NMatS0=      1 NMatT0=    0 NMatD0=    1 NMtDS0=    0 NMtDT0=    0
 Symmetry not used in FoFCou.
 Leave Link  703 at Wed Aug 28 16:21:40 2024, MaxMem=   104857600 cpu:               0.2 elap:               0.2
 (Enter /gpfs/fs1/soft/improv/software/custom-built/gaussian/g16/l716.exe)
 Dipole        =-2.73110901D-01 8.16933645D-01-1.75037588D+00
 Polarizability= 0.00000000D+00 0.00000000D+00 0.00000000D+00
                 0.00000000D+00 0.00000000D+00 0.00000000D+00
 -------------------------------------------------------------------
 Center     Atomic                   Forces (Hartrees/Bohr)
 Number     Number              X              Y              Z
 -------------------------------------------------------------------
      1        6          -0.001399441    0.004175586   -0.008948876
      2        1           0.000805033   -0.000621860   -0.000519683
      3        1           0.000249287    0.001058035    0.000351069
      4        1          -0.001095242   -0.000319184   -0.000083236
      5       17           0.000570963   -0.001701691    0.003647387
      6       35           0.000869400   -0.002590887    0.005553337
 -------------------------------------------------------------------
 Cartesian Forces:  Max     0.008948876 RMS     0.002964865
 Leave Link  716 at Wed Aug 28 16:21:40 2024, MaxMem=   104857600 cpu:               0.0 elap:               0.0
 (Enter /gpfs/fs1/soft/improv/software/custom-built/gaussian/g16/l123.exe)
 IRC-IRC-IRC-IRC-IRC-IRC-IRC-IRC-IRC-IRC-IRC-IRC-IRC-IRC-IRC-IRC-IRC-IRC
 Pt  2 Step number   1 out of a maximum of  20
 Using modified Bulirsch-Stoer corrector integration.
   Using distance weighted interpolants to fit PES.
 PreDWI: IReCr0= 1 IReCr1= 1 IReCr2= 1 IReCr3= 1
 Modified Bulirsch-Stoer Extrapolation Cycles:
    EPS =    0.000010000000000
    Cycle     1 NS=    48
      PEZero:  N= 2 I= 1 D=  1.81D-03 Err=  6.75D-06
    Cycle     2 NS=    64 Truncation Error =  0.000006746
 BS completed in    2 cycles and     112 integration steps.
 Maximum DWI energy   std dev =  0.000004282 at pt    41
 Maximum DWI gradient std dev =  0.228209159 at pt    36
 SUMMARY OF CORRECTOR INTEGRATION:
   Predictor End Point Energy = -3056.806341
   Old End Point Energy       = -3056.806341
   Corrected End Point Energy = -3056.806345
   Predictor End-Start Dist.  =     0.347810
   Old End-Start Dist.        =     0.347810
   New End-Start Dist.        =     0.347797
   New End-Old End Dist.      =     0.004660
 Point Number:   2          Path Number:   1
                    CURRENT STRUCTURE
                Cartesian Coordinates (Ang):                
 ---------------------------------------------------------------------
 Center     Atomic                     Coordinates (Angstroms)
 Number     Number                        X           Y           Z
 ---------------------------------------------------------------------
      1          6                    0.122597   -0.366198    0.784732
      2          1                   -0.635069    0.236606    1.217432
      3          1                   -0.117643   -1.327472    0.406713
      4          1                    1.132985   -0.045041    0.810002
      5         17                    0.461618   -1.380187    2.957342
      6         35                   -0.228053    0.681786   -1.460885
 ---------------------------------------------------------------------
   CHANGE IN THE REACTION COORDINATE =    0.34780
   NET REACTION COORDINATE UP TO THIS POINT =    0.69555
  # OF POINTS ALONG THE PATH =   2
  # OF STEPS =   1

 Calculating another point on the path.
 Point Number  3 in FORWARD path direction.
 Using LQA Reaction Path Following.
   LQA: T_Est iteration completed in    3 iterations.
 IRC-IRC-IRC-IRC-IRC-IRC-IRC-IRC-IRC-IRC-IRC-IRC-IRC-IRC-IRC-IRC-IRC-IRC
 Leave Link  123 at Wed Aug 28 16:21:40 2024, MaxMem=   104857600 cpu:               0.0 elap:               0.1
 (Enter /gpfs/fs1/soft/improv/software/custom-built/gaussian/g16/l202.exe)
                          Input orientation:                          
 ---------------------------------------------------------------------
 Center     Atomic      Atomic             Coordinates (Angstroms)
 Number     Number       Type             X           Y           Z
 ---------------------------------------------------------------------
      1          6           0        0.115560   -0.345204    0.739738
      2          1           0       -0.636038    0.239919    1.209834
      3          1           0       -0.118758   -1.323716    0.399344
      4          1           0        1.131513   -0.041638    0.802497
      5         17           0        0.462599   -1.383113    2.963613
      6         35           0       -0.227386    0.679796   -1.456620
 ---------------------------------------------------------------------
                    Distance matrix (angstroms):
                    1          2          3          4          5
     1  C    0.000000
     2  H    1.062195   0.000000
     3  H    1.062195   1.835600   0.000000
     4  H    1.062192   1.835602   1.835602   0.000000
     5  Cl   2.478569   2.630014   2.630014   2.630099   0.000000
     6  Br   2.447902   2.733215   2.733215   2.733254   4.926472
                    6
     6  Br   0.000000
 Symmetry turned off by external request.
 This structure is nearly, but not quite of a higher symmetry.
 Consider Symm=Loose if the higher symmetry is desired.
 Stoichiometry    CH3BrCl(1-)
 Framework group  C1[X(CH3BrCl)]
 Deg. of freedom    12
 Full point group                 C1      NOp   1
 Rotational constants (GHZ):         148.8248342           0.8397979           0.8397979
 Leave Link  202 at Wed Aug 28 16:21:40 2024, MaxMem=   104857600 cpu:               0.0 elap:               0.0
 (Enter /gpfs/fs1/soft/improv/software/custom-built/gaussian/g16/l301.exe)
 Basis read from rwf:  (6D, 7F)
 No pseudopotential information found on rwf file.
    51 basis functions,   108 primitive gaussians,    51 cartesian basis functions
    31 alpha electrons       31 beta electrons
       nuclear repulsion energy       171.5086876222 Hartrees.
 IExCor=    0 DFT=F Ex=HF Corr=None ExCW=0 ScaHFX=  1.000000
 ScaDFX=  1.000000  1.000000  1.000000  1.000000 ScalE2=  1.000000  1.000000
 IRadAn=      5 IRanWt=     -1 IRanGd=            0 ICorTp=0 IEmpDi=  4
 NAtoms=    6 NActive=    6 NUniq=    6 SFac= 1.00D+00 NAtFMM=   60 NAOKFM=F Big=F
 Integral buffers will be    131072 words long.
 Raffenetti 1 integral format.
 Two-electron integral symmetry is turned off.
 No density basis found on file    724.
 Leave Link  301 at Wed Aug 28 16:21:40 2024, MaxMem=   104857600 cpu:               0.0 elap:               0.0
 (Enter /gpfs/fs1/soft/improv/software/custom-built/gaussian/g16/l302.exe)
 NPDir=0 NMtPBC=     1 NCelOv=     1 NCel=       1 NClECP=     1 NCelD=      1
         NCelK=      1 NCelE2=     1 NClLst=     1 CellRange=     0.0.
 One-electron integrals computed using PRISM.
 NBasis=    51 RedAO= T EigKep=  4.89D-03  NBF=    51
 NBsUse=    51 1.00D-06 EigRej= -1.00D+00 NBFU=    51
 Leave Link  302 at Wed Aug 28 16:21:40 2024, MaxMem=   104857600 cpu:               0.0 elap:               0.0
 (Enter /gpfs/fs1/soft/improv/software/custom-built/gaussian/g16/l303.exe)
 DipDrv:  MaxL=1.
 Leave Link  303 at Wed Aug 28 16:21:40 2024, MaxMem=   104857600 cpu:               0.0 elap:               0.0
 (Enter /gpfs/fs1/soft/improv/software/custom-built/gaussian/g16/l401.exe)
 Initial guess from the checkpoint file:  "example1_IRC.chk"
 B after Tr=    -0.000185    0.000549   -0.001178
         Rot=    1.000000    0.000000   -0.000000   -0.000000 Ang=   0.00 deg.
 Guess basis will be translated and rotated to current coordinates.
 JPrj=2 DoOrth=T DoCkMO=T.
 Generating alternative initial guess.
 ExpMin= 1.65D-01 ExpMax= 6.10D+03 ExpMxC= 6.10D+03 IAcc=3 IRadAn=         5 AccDes= 0.00D+00
 Harris functional with IExCor=  205 and IRadAn=       5 diagonalized for initial guess.
 HarFok:  IExCor=  205 AccDes= 0.00D+00 IRadAn=         5 IDoV= 1 UseB2=F ITyADJ=14
 ICtDFT=  3500011 ScaDFX=  1.000000  1.000000  1.000000  1.000000
 FoFCou: FMM=F IPFlag=           0 FMFlag=      100000 FMFlg1=           0
         NFxFlg=           0 DoJE=T BraDBF=F KetDBF=T FulRan=T
         wScrn=  0.000000 ICntrl=       500 IOpCl=  0 I1Cent=   200000004 NGrid=           0
         NMat0=    1 NMatS0=      1 NMatT0=    0 NMatD0=    1 NMtDS0=    0 NMtDT0=    0
 Symmetry not used in FoFCou.
 Harris En= -3055.69775892151    
 Leave Link  401 at Wed Aug 28 16:21:41 2024, MaxMem=   104857600 cpu:               0.2 elap:               0.2
 (Enter /gpfs/fs1/soft/improv/software/custom-built/gaussian/g16/l502.exe)
 Keep R1 ints in memory in canonical form, NReq=1713163.
 FoFCou: FMM=F IPFlag=           0 FMFlag=           0 FMFlg1=           0
         NFxFlg=           0 DoJE=F BraDBF=F KetDBF=F FulRan=T
         wScrn=  0.000000 ICntrl=       600 IOpCl=  0 I1Cent=           0 NGrid=           0
         NMat0=    1 NMatS0=   1326 NMatT0=    0 NMatD0=    1 NMtDS0=    0 NMtDT0=    0
 Symmetry not used in FoFCou.
 Two-electron integral symmetry not used.
 Closed shell SCF:
 Using DIIS extrapolation, IDIIS=  1040.
 NGot=   104857600 LenX=   103971534 LenY=   103968492
 Requested convergence on RMS density matrix=1.00D-08 within 128 cycles.
 Requested convergence on MAX density matrix=1.00D-06.
 Requested convergence on             energy=1.00D-06.
 No special actions if energy rises.

 Cycle   1  Pass 1  IDiag  1:
 E= -3056.80661968601    
 DIIS: error= 2.46D-03 at cycle   1 NSaved=   1.
 NSaved= 1 IEnMin= 1 EnMin= -3056.80661968601     IErMin= 1 ErrMin= 2.46D-03
 ErrMax= 2.46D-03  0.00D+00 EMaxC= 1.00D-01 BMatC= 5.17D-04 BMatP= 5.17D-04
 IDIUse=3 WtCom= 9.75D-01 WtEn= 2.46D-02
 Coeff-Com:  0.100D+01
 Coeff-En:   0.100D+01
 Coeff:      0.100D+01
 Gap=     0.710 Goal=   None    Shift=    0.000
 GapD=    0.710 DampG=2.000 DampE=1.000 DampFc=2.0000 IDamp=-1.
 RMSDP=7.50D-04 MaxDP=7.71D-03              OVMax= 0.00D+00

 Cycle   2  Pass 1  IDiag  1:
 E= -3056.80752208074     Delta-E=       -0.000902394728 Rises=F Damp=F
 DIIS: error= 7.55D-04 at cycle   2 NSaved=   2.
 NSaved= 2 IEnMin= 2 EnMin= -3056.80752208074     IErMin= 2 ErrMin= 7.55D-04
 ErrMax= 7.55D-04  0.00D+00 EMaxC= 1.00D-01 BMatC= 3.92D-05 BMatP= 5.17D-04
 IDIUse=3 WtCom= 9.92D-01 WtEn= 7.55D-03
 Coeff-Com: -0.152D+00 0.115D+01
 Coeff-En:   0.000D+00 0.100D+01
 Coeff:     -0.151D+00 0.115D+01
 Gap=     0.437 Goal=   None    Shift=    0.000
 RMSDP=3.59D-04 MaxDP=3.67D-03 DE=-9.02D-04 OVMax= 0.00D+00

 Cycle   3  Pass 1  IDiag  1:
 E= -3056.80764631855     Delta-E=       -0.000124237809 Rises=F Damp=F
 DIIS: error= 2.05D-04 at cycle   3 NSaved=   3.
 NSaved= 3 IEnMin= 3 EnMin= -3056.80764631855     IErMin= 3 ErrMin= 2.05D-04
 ErrMax= 2.05D-04  0.00D+00 EMaxC= 1.00D-01 BMatC= 3.26D-06 BMatP= 3.92D-05
 IDIUse=3 WtCom= 9.98D-01 WtEn= 2.05D-03
 Coeff-Com: -0.846D-02-0.218D+00 0.123D+01
 Coeff-En:   0.000D+00 0.000D+00 0.100D+01
 Coeff:     -0.844D-02-0.217D+00 0.123D+01
 Gap=     0.436 Goal=   None    Shift=    0.000
 RMSDP=1.37D-04 MaxDP=1.30D-03 DE=-1.24D-04 OVMax= 0.00D+00

 Cycle   4  Pass 1  IDiag  1:
 E= -3056.80766109324     Delta-E=       -0.000014774687 Rises=F Damp=F
 DIIS: error= 7.86D-05 at cycle   4 NSaved=   4.
 NSaved= 4 IEnMin= 4 EnMin= -3056.80766109324     IErMin= 4 ErrMin= 7.86D-05
 ErrMax= 7.86D-05  0.00D+00 EMaxC= 1.00D-01 BMatC= 4.61D-07 BMatP= 3.26D-06
 IDIUse=1 WtCom= 1.00D+00 WtEn= 0.00D+00
 Coeff-Com:  0.133D-01-0.145D+00 0.179D+00 0.952D+00
 Coeff:      0.133D-01-0.145D+00 0.179D+00 0.952D+00
 Gap=     0.437 Goal=   None    Shift=    0.000
 RMSDP=3.68D-05 MaxDP=3.18D-04 DE=-1.48D-05 OVMax= 0.00D+00

 Cycle   5  Pass 1  IDiag  1:
 E= -3056.80766217313     Delta-E=       -0.000001079892 Rises=F Damp=F
 DIIS: error= 1.15D-05 at cycle   5 NSaved=   5.
 NSaved= 5 IEnMin= 5 EnMin= -3056.80766217313     IErMin= 5 ErrMin= 1.15D-05
 ErrMax= 1.15D-05  0.00D+00 EMaxC= 1.00D-01 BMatC= 1.34D-08 BMatP= 4.61D-07
 IDIUse=1 WtCom= 1.00D+00 WtEn= 0.00D+00
 Coeff-Com: -0.735D-03 0.307D-01-0.902D-01-0.161D+00 0.122D+01
 Coeff:     -0.735D-03 0.307D-01-0.902D-01-0.161D+00 0.122D+01
 Gap=     0.437 Goal=   None    Shift=    0.000
 RMSDP=7.28D-06 MaxDP=5.96D-05 DE=-1.08D-06 OVMax= 0.00D+00

 Cycle   6  Pass 1  IDiag  1:
 E= -3056.80766221654     Delta-E=       -0.000000043406 Rises=F Damp=F
 DIIS: error= 4.40D-06 at cycle   6 NSaved=   6.
 NSaved= 6 IEnMin= 6 EnMin= -3056.80766221654     IErMin= 6 ErrMin= 4.40D-06
 ErrMax= 4.40D-06  0.00D+00 EMaxC= 1.00D-01 BMatC= 6.16D-10 BMatP= 1.34D-08
 IDIUse=1 WtCom= 1.00D+00 WtEn= 0.00D+00
 Coeff-Com: -0.506D-03 0.934D-02-0.173D-01-0.578D-01 0.183D+00 0.884D+00
 Coeff:     -0.506D-03 0.934D-02-0.173D-01-0.578D-01 0.183D+00 0.884D+00
 Gap=     0.437 Goal=   None    Shift=    0.000
 RMSDP=1.04D-06 MaxDP=1.15D-05 DE=-4.34D-08 OVMax= 0.00D+00

 Cycle   7  Pass 1  IDiag  1:
 E= -3056.80766221756     Delta-E=       -0.000000001020 Rises=F Damp=F
 DIIS: error= 7.52D-07 at cycle   7 NSaved=   7.
 NSaved= 7 IEnMin= 7 EnMin= -3056.80766221756     IErMin= 7 ErrMin= 7.52D-07
 ErrMax= 7.52D-07  0.00D+00 EMaxC= 1.00D-01 BMatC= 2.73D-11 BMatP= 6.16D-10
 IDIUse=1 WtCom= 1.00D+00 WtEn= 0.00D+00
 Coeff-Com:  0.452D-04-0.178D-02 0.532D-02 0.755D-02-0.716D-01 0.151D-01
 Coeff-Com:  0.105D+01
 Coeff:      0.452D-04-0.178D-02 0.532D-02 0.755D-02-0.716D-01 0.151D-01
 Coeff:      0.105D+01
 Gap=     0.437 Goal=   None    Shift=    0.000
 RMSDP=3.32D-07 MaxDP=3.88D-06 DE=-1.02D-09 OVMax= 0.00D+00

 Cycle   8  Pass 1  IDiag  1:
 E= -3056.80766221762     Delta-E=       -0.000000000059 Rises=F Damp=F
 DIIS: error= 1.16D-07 at cycle   8 NSaved=   8.
 NSaved= 8 IEnMin= 8 EnMin= -3056.80766221762     IErMin= 8 ErrMin= 1.16D-07
 ErrMax= 1.16D-07  0.00D+00 EMaxC= 1.00D-01 BMatC= 6.01D-13 BMatP= 2.73D-11
 IDIUse=1 WtCom= 1.00D+00 WtEn= 0.00D+00
 Coeff-Com:  0.150D-04-0.240D-03 0.487D-03 0.117D-02-0.471D-02-0.233D-01
 Coeff-Com:  0.143D-01 0.101D+01
 Coeff:      0.150D-04-0.240D-03 0.487D-03 0.117D-02-0.471D-02-0.233D-01
 Coeff:      0.143D-01 0.101D+01
 Gap=     0.437 Goal=   None    Shift=    0.000
 RMSDP=5.00D-08 MaxDP=6.36D-07 DE=-5.91D-11 OVMax= 0.00D+00

 Cycle   9  Pass 1  IDiag  1:
 E= -3056.80766221763     Delta-E=       -0.000000000013 Rises=F Damp=F
 DIIS: error= 2.64D-08 at cycle   9 NSaved=   9.
 NSaved= 9 IEnMin= 9 EnMin= -3056.80766221763     IErMin= 9 ErrMin= 2.64D-08
 ErrMax= 2.64D-08  0.00D+00 EMaxC= 1.00D-01 BMatC= 2.22D-14 BMatP= 6.01D-13
 IDIUse=1 WtCom= 1.00D+00 WtEn= 0.00D+00
 Coeff-Com: -0.227D-05 0.952D-04-0.262D-03-0.450D-03 0.365D-02 0.350D-03
 Coeff-Com: -0.442D-01-0.696D-01 0.111D+01
 Coeff:     -0.227D-05 0.952D-04-0.262D-03-0.450D-03 0.365D-02 0.350D-03
 Coeff:     -0.442D-01-0.696D-01 0.111D+01
 Gap=     0.437 Goal=   None    Shift=    0.000
 RMSDP=1.07D-08 MaxDP=1.43D-07 DE=-1.27D-11 OVMax= 0.00D+00

 Cycle  10  Pass 1  IDiag  1:
 E= -3056.80766221763     Delta-E=        0.000000000001 Rises=F Damp=F
 DIIS: error= 4.36D-09 at cycle  10 NSaved=  10.
 NSaved=10 IEnMin= 9 EnMin= -3056.80766221763     IErMin=10 ErrMin= 4.36D-09
 ErrMax= 4.36D-09  0.00D+00 EMaxC= 1.00D-01 BMatC= 8.56D-16 BMatP= 2.22D-14
 IDIUse=1 WtCom= 1.00D+00 WtEn= 0.00D+00
 Coeff-Com:  0.384D-06-0.229D-04 0.661D-04 0.972D-04-0.909D-03 0.696D-04
 Coeff-Com:  0.134D-01-0.484D-02-0.314D+00 0.131D+01
 Coeff:      0.384D-06-0.229D-04 0.661D-04 0.972D-04-0.909D-03 0.696D-04
 Coeff:      0.134D-01-0.484D-02-0.314D+00 0.131D+01
 Gap=     0.437 Goal=   None    Shift=    0.000
 RMSDP=1.80D-09 MaxDP=1.76D-08 DE= 9.09D-13 OVMax= 0.00D+00

 SCF Done:  E(RHF) =  -3056.80766222     A.U. after   10 cycles
            NFock= 10  Conv=0.18D-08     -V/T= 1.9973
 KE= 3.065134689394D+03 PE=-7.677582969084D+03 EE= 1.384131929850D+03
 Leave Link  502 at Wed Aug 28 16:21:41 2024, MaxMem=   104857600 cpu:               0.1 elap:               0.1
 (Enter /gpfs/fs1/soft/improv/software/custom-built/gaussian/g16/l801.exe)
 Range of M.O.s used for correlation:     1    51
 NBasis=    51 NAE=    31 NBE=    31 NFC=     0 NFV=     0
 NROrb=     51 NOA=    31 NOB=    31 NVA=    20 NVB=    20

 **** Warning!!: The largest alpha MO coefficient is  0.10777540D+02

 Leave Link  801 at Wed Aug 28 16:21:41 2024, MaxMem=   104857600 cpu:               0.0 elap:               0.0
 (Enter /gpfs/fs1/soft/improv/software/custom-built/gaussian/g16/l1101.exe)
 Leave Link 1101 at Wed Aug 28 16:21:41 2024, MaxMem=   104857600 cpu:               0.0 elap:               0.0
 (Enter /gpfs/fs1/soft/improv/software/custom-built/gaussian/g16/l1102.exe)
 Symmetrizing basis deriv contribution to polar:
 IMax=3 JMax=2 DiffMx= 0.00D+00
 Leave Link 1102 at Wed Aug 28 16:21:41 2024, MaxMem=   104857600 cpu:               0.0 elap:               0.0
 (Enter /gpfs/fs1/soft/improv/software/custom-built/gaussian/g16/l1110.exe)
 Leave Link 1110 at Wed Aug 28 16:21:41 2024, MaxMem=   104857600 cpu:               0.0 elap:               0.0
 (Enter /gpfs/fs1/soft/improv/software/custom-built/gaussian/g16/l1002.exe)
 Minotr:  Closed shell wavefunction.
 Leave Link 1002 at Wed Aug 28 16:21:41 2024, MaxMem=   104857600 cpu:               0.0 elap:               0.0
 (Enter /gpfs/fs1/soft/improv/software/custom-built/gaussian/g16/l701.exe)
 ... and contract with generalized density number  0.
 Compute integral first derivatives.
 Leave Link  701 at Wed Aug 28 16:21:41 2024, MaxMem=   104857600 cpu:               0.0 elap:               0.0
 (Enter /gpfs/fs1/soft/improv/software/custom-built/gaussian/g16/l702.exe)
 L702 exits ... SP integral derivatives will be done elsewhere.
 Leave Link  702 at Wed Aug 28 16:21:41 2024, MaxMem=   104857600 cpu:               0.0 elap:               0.1
 (Enter /gpfs/fs1/soft/improv/software/custom-built/gaussian/g16/l703.exe)
 Integral derivatives from FoFJK, PRISM(SPDF).
 Compute integral first derivatives, UseDBF=F ICtDFT=           0.
 Calling FoFJK, ICntrl=      2127 FMM=F ISym2X=0 I1Cent= 0 IOpClX= 0 NMat=1 NMatS=1 NMatT=0.
 FoFJK:  IHMeth= 1 ICntrl=    2127 DoSepK=F KAlg= 0 I1Cent=           0 FoldK=F
 IRaf=         0 NMat=       1 IRICut=       1 DoRegI=T DoRafI=F ISym2E= 0 IDoP0=0 IntGTp=1.
 FoFCou: FMM=F IPFlag=           0 FMFlag=      100000 FMFlg1=         800
         NFxFlg=           0 DoJE=F BraDBF=F KetDBF=F FulRan=T
         wScrn=  0.000000 ICntrl=      2127 IOpCl=  0 I1Cent=           0 NGrid=           0
         NMat0=    1 NMatS0=      1 NMatT0=    0 NMatD0=    1 NMtDS0=    0 NMtDT0=    0
 Symmetry not used in FoFCou.
 Leave Link  703 at Wed Aug 28 16:21:42 2024, MaxMem=   104857600 cpu:               0.2 elap:               0.2
 (Enter /gpfs/fs1/soft/improv/software/custom-built/gaussian/g16/l716.exe)
 Dipole        =-3.27692433D-01 9.80050786D-01-2.09990494D+00
 Polarizability= 0.00000000D+00 0.00000000D+00 0.00000000D+00
                 0.00000000D+00 0.00000000D+00 0.00000000D+00
 -------------------------------------------------------------------
 Center     Atomic                   Forces (Hartrees/Bohr)
 Number     Number              X              Y              Z
 -------------------------------------------------------------------
      1        6          -0.002045164    0.006089286   -0.013053038
      2        1           0.000726060   -0.000521824   -0.000591231
      3        1           0.000213082    0.001028816    0.000212520
      4        1          -0.001023223   -0.000241847   -0.000186469
      5       17           0.000832371   -0.002483481    0.005322494
      6       35           0.001296874   -0.003870950    0.008295724
 -------------------------------------------------------------------
 Cartesian Forces:  Max     0.013053038 RMS     0.004318930
 Leave Link  716 at Wed Aug 28 16:21:42 2024, MaxMem=   104857600 cpu:               0.0 elap:               0.0
 (Enter /gpfs/fs1/soft/improv/software/custom-built/gaussian/g16/l123.exe)
 IRC-IRC-IRC-IRC-IRC-IRC-IRC-IRC-IRC-IRC-IRC-IRC-IRC-IRC-IRC-IRC-IRC-IRC
 Pt  3 Step number   1 out of a maximum of  20
 Using modified Bulirsch-Stoer corrector integration.
   Using distance weighted interpolants to fit PES.
 PreDWI: IReCr0= 1 IReCr1= 1 IReCr2= 1 IReCr3= 1
 Modified Bulirsch-Stoer Extrapolation Cycles:
    EPS =    0.000010000000000
    Cycle     1 NS=    48
      PEZero:  N= 2 I= 1 D=  1.81D-03 Err=  8.50D-06
    Cycle     2 NS=    64 Truncation Error =  0.000008495
 BS completed in    2 cycles and     112 integration steps.
 Maximum DWI energy   std dev =  0.000003174 at pt    23
 Maximum DWI gradient std dev =  0.124680027 at pt    37
 SUMMARY OF CORRECTOR INTEGRATION:
   Predictor End Point Energy = -3056.807662
   Old End Point Energy       = -3056.807662
   Corrected End Point Energy = -3056.807666
   Predictor End-Start Dist.  =     0.347832
   Old End-Start Dist.        =     0.347832
   New End-Start Dist.        =     0.347819
   New End-Old End Dist.      =     0.004425
 Point Number:   3          Path Number:   1
                    CURRENT STRUCTURE
                Cartesian Coordinates (Ang):                
 ---------------------------------------------------------------------
 Center     Atomic                     Coordinates (Angstroms)
 Number     Number                        X           Y           Z
 ---------------------------------------------------------------------
      1          6                    0.115563   -0.345213    0.739757
      2          1                   -0.635210    0.239407    1.208908
      3          1                   -0.118538   -1.322391    0.399371
      4          1                    1.130267   -0.041825    0.802062
      5         17                    0.462594   -1.383098    2.963581
      6         35                   -0.227384    0.679792   -1.456611
 ---------------------------------------------------------------------
   CHANGE IN THE REACTION COORDINATE =    0.34782
   NET REACTION COORDINATE UP TO THIS POINT =    1.04337
  # OF POINTS ALONG THE PATH =   3
  # OF STEPS =   1

 Calculating another point on the path.
 Point Number  4 in FORWARD path direction.
 Using LQA Reaction Path Following.
   LQA: T_Est iteration completed in    3 iterations.
 IRC-IRC-IRC-IRC-IRC-IRC-IRC-IRC-IRC-IRC-IRC-IRC-IRC-IRC-IRC-IRC-IRC-IRC
 Leave Link  123 at Wed Aug 28 16:21:42 2024, MaxMem=   104857600 cpu:               0.0 elap:               0.0
 (Enter /gpfs/fs1/soft/improv/software/custom-built/gaussian/g16/l202.exe)
                          Input orientation:                          
 ---------------------------------------------------------------------
 Center     Atomic      Atomic             Coordinates (Angstroms)
 Number     Number       Type             X           Y           Z
 ---------------------------------------------------------------------
      1          6           0        0.108536   -0.324231    0.694793
      2          1           0       -0.635349    0.242288    1.200151
      3          1           0       -0.119450   -1.317170    0.391826
      4          1           0        1.127483   -0.038522    0.793914
      5         17           0        0.463558   -1.385976    2.969750
      6         35           0       -0.226708    0.677773   -1.452284
 ---------------------------------------------------------------------
                    Distance matrix (angstroms):
                    1          2          3          4          5
     1  C    0.000000
     2  H    1.062871   0.000000
     3  H    1.062871   1.830696   0.000000
     4  H    1.062877   1.830699   1.830699   0.000000
     5  Cl   2.535502   2.643921   2.643922   2.643991   0.000000
     6  Br   2.392978   2.718832   2.718832   2.718882   4.928480
                    6
     6  Br   0.000000
 Symmetry turned off by external request.
 Stoichiometry    CH3BrCl(1-)
 Framework group  C1[X(CH3BrCl)]
 Deg. of freedom    12
 Full point group                 C1      NOp   1
 Rotational constants (GHZ):         149.6230745           0.8407427           0.8407427
 Leave Link  202 at Wed Aug 28 16:21:42 2024, MaxMem=   104857600 cpu:               0.0 elap:               0.0
 (Enter /gpfs/fs1/soft/improv/software/custom-built/gaussian/g16/l301.exe)
 Basis read from rwf:  (6D, 7F)
 No pseudopotential information found on rwf file.
    51 basis functions,   108 primitive gaussians,    51 cartesian basis functions
    31 alpha electrons       31 beta electrons
       nuclear repulsion energy       172.0857691789 Hartrees.
 IExCor=    0 DFT=F Ex=HF Corr=None ExCW=0 ScaHFX=  1.000000
 ScaDFX=  1.000000  1.000000  1.000000  1.000000 ScalE2=  1.000000  1.000000
 IRadAn=      5 IRanWt=     -1 IRanGd=            0 ICorTp=0 IEmpDi=  4
 NAtoms=    6 NActive=    6 NUniq=    6 SFac= 1.00D+00 NAtFMM=   60 NAOKFM=F Big=F
 Integral buffers will be    131072 words long.
 Raffenetti 1 integral format.
 Two-electron integral symmetry is turned off.
 No density basis found on file    724.
 Leave Link  301 at Wed Aug 28 16:21:42 2024, MaxMem=   104857600 cpu:               0.0 elap:               0.0
 (Enter /gpfs/fs1/soft/improv/software/custom-built/gaussian/g16/l302.exe)
 NPDir=0 NMtPBC=     1 NCelOv=     1 NCel=       1 NClECP=     1 NCelD=      1
         NCelK=      1 NCelE2=     1 NClLst=     1 CellRange=     0.0.
 One-electron integrals computed using PRISM.
 NBasis=    51 RedAO= T EigKep=  4.89D-03  NBF=    51
 NBsUse=    51 1.00D-06 EigRej= -1.00D+00 NBFU=    51
 Leave Link  302 at Wed Aug 28 16:21:42 2024, MaxMem=   104857600 cpu:               0.0 elap:               0.1
 (Enter /gpfs/fs1/soft/improv/software/custom-built/gaussian/g16/l303.exe)
 DipDrv:  MaxL=1.
 Leave Link  303 at Wed Aug 28 16:21:42 2024, MaxMem=   104857600 cpu:               0.0 elap:               0.0
 (Enter /gpfs/fs1/soft/improv/software/custom-built/gaussian/g16/l401.exe)
 Initial guess from the checkpoint file:  "example1_IRC.chk"
 B after Tr=    -0.000191    0.000570   -0.001221
         Rot=    1.000000   -0.000000    0.000000    0.000000 Ang=   0.00 deg.
 Guess basis will be translated and rotated to current coordinates.
 JPrj=2 DoOrth=T DoCkMO=T.
 Generating alternative initial guess.
 ExpMin= 1.65D-01 ExpMax= 6.10D+03 ExpMxC= 6.10D+03 IAcc=3 IRadAn=         5 AccDes= 0.00D+00
 Harris functional with IExCor=  205 and IRadAn=       5 diagonalized for initial guess.
 HarFok:  IExCor=  205 AccDes= 0.00D+00 IRadAn=         5 IDoV= 1 UseB2=F ITyADJ=14
 ICtDFT=  3500011 ScaDFX=  1.000000  1.000000  1.000000  1.000000
 FoFCou: FMM=F IPFlag=           0 FMFlag=      100000 FMFlg1=           0
         NFxFlg=           0 DoJE=T BraDBF=F KetDBF=T FulRan=T
         wScrn=  0.000000 ICntrl=       500 IOpCl=  0 I1Cent=   200000004 NGrid=           0
         NMat0=    1 NMatS0=      1 NMatT0=    0 NMatD0=    1 NMtDS0=    0 NMtDT0=    0
 Symmetry not used in FoFCou.
 Harris En= -3055.69492929942    
 Leave Link  401 at Wed Aug 28 16:21:42 2024, MaxMem=   104857600 cpu:               0.2 elap:               0.2
 (Enter /gpfs/fs1/soft/improv/software/custom-built/gaussian/g16/l502.exe)
 Keep R1 ints in memory in canonical form, NReq=1713178.
 FoFCou: FMM=F IPFlag=           0 FMFlag=           0 FMFlg1=           0
         NFxFlg=           0 DoJE=F BraDBF=F KetDBF=F FulRan=T
         wScrn=  0.000000 ICntrl=       600 IOpCl=  0 I1Cent=           0 NGrid=           0
         NMat0=    1 NMatS0=   1326 NMatT0=    0 NMatD0=    1 NMtDS0=    0 NMtDT0=    0
 Symmetry not used in FoFCou.
 Two-electron integral symmetry not used.
 Closed shell SCF:
 Using DIIS extrapolation, IDIIS=  1040.
 NGot=   104857600 LenX=   103971534 LenY=   103968492
 Requested convergence on RMS density matrix=1.00D-08 within 128 cycles.
 Requested convergence on MAX density matrix=1.00D-06.
 Requested convergence on             energy=1.00D-06.
 No special actions if energy rises.

 Cycle   1  Pass 1  IDiag  1:
 E= -3056.80843345548    
 DIIS: error= 2.25D-03 at cycle   1 NSaved=   1.
 NSaved= 1 IEnMin= 1 EnMin= -3056.80843345548     IErMin= 1 ErrMin= 2.25D-03
 ErrMax= 2.25D-03  0.00D+00 EMaxC= 1.00D-01 BMatC= 5.21D-04 BMatP= 5.21D-04
 IDIUse=3 WtCom= 9.77D-01 WtEn= 2.25D-02
 Coeff-Com:  0.100D+01
 Coeff-En:   0.100D+01
 Coeff:      0.100D+01
 Gap=     0.712 Goal=   None    Shift=    0.000
 GapD=    0.712 DampG=2.000 DampE=1.000 DampFc=2.0000 IDamp=-1.
 RMSDP=7.36D-04 MaxDP=8.21D-03              OVMax= 0.00D+00

 Cycle   2  Pass 1  IDiag  1:
 E= -3056.80929860641     Delta-E=       -0.000865150927 Rises=F Damp=F
 DIIS: error= 6.89D-04 at cycle   2 NSaved=   2.
 NSaved= 2 IEnMin= 2 EnMin= -3056.80929860641     IErMin= 2 ErrMin= 6.89D-04
 ErrMax= 6.89D-04  0.00D+00 EMaxC= 1.00D-01 BMatC= 3.83D-05 BMatP= 5.21D-04
 IDIUse=3 WtCom= 9.93D-01 WtEn= 6.89D-03
 Coeff-Com: -0.142D+00 0.114D+01
 Coeff-En:   0.000D+00 0.100D+01
 Coeff:     -0.141D+00 0.114D+01
 Gap=     0.438 Goal=   None    Shift=    0.000
 RMSDP=3.40D-04 MaxDP=3.62D-03 DE=-8.65D-04 OVMax= 0.00D+00

 Cycle   3  Pass 1  IDiag  1:
 E= -3056.80941493174     Delta-E=       -0.000116325334 Rises=F Damp=F
 DIIS: error= 1.98D-04 at cycle   3 NSaved=   3.
 NSaved= 3 IEnMin= 3 EnMin= -3056.80941493174     IErMin= 3 ErrMin= 1.98D-04
 ErrMax= 1.98D-04  0.00D+00 EMaxC= 1.00D-01 BMatC= 3.25D-06 BMatP= 3.83D-05
 IDIUse=3 WtCom= 9.98D-01 WtEn= 1.98D-03
 Coeff-Com: -0.154D-01-0.172D+00 0.119D+01
 Coeff-En:   0.000D+00 0.000D+00 0.100D+01
 Coeff:     -0.154D-01-0.172D+00 0.119D+01
 Gap=     0.437 Goal=   None    Shift=    0.000
 RMSDP=1.30D-04 MaxDP=1.34D-03 DE=-1.16D-04 OVMax= 0.00D+00

 Cycle   4  Pass 1  IDiag  1:
 E= -3056.80942893373     Delta-E=       -0.000014001987 Rises=F Damp=F
 DIIS: error= 1.02D-04 at cycle   4 NSaved=   4.
 NSaved= 4 IEnMin= 4 EnMin= -3056.80942893373     IErMin= 4 ErrMin= 1.02D-04
 ErrMax= 1.02D-04  0.00D+00 EMaxC= 1.00D-01 BMatC= 5.48D-07 BMatP= 3.25D-06
 IDIUse=3 WtCom= 9.99D-01 WtEn= 1.02D-03
 Coeff-Com:  0.130D-01-0.154D+00 0.199D+00 0.943D+00
 Coeff-En:   0.000D+00 0.000D+00 0.000D+00 0.100D+01
 Coeff:      0.130D-01-0.154D+00 0.198D+00 0.943D+00
 Gap=     0.438 Goal=   None    Shift=    0.000
 RMSDP=3.79D-05 MaxDP=3.34D-04 DE=-1.40D-05 OVMax= 0.00D+00

 Cycle   5  Pass 1  IDiag  1:
 E= -3056.80943015551     Delta-E=       -0.000001221778 Rises=F Damp=F
 DIIS: error= 1.26D-05 at cycle   5 NSaved=   5.
 NSaved= 5 IEnMin= 5 EnMin= -3056.80943015551     IErMin= 5 ErrMin= 1.26D-05
 ErrMax= 1.26D-05  0.00D+00 EMaxC= 1.00D-01 BMatC= 1.47D-08 BMatP= 5.48D-07
 IDIUse=1 WtCom= 1.00D+00 WtEn= 0.00D+00
 Coeff-Com: -0.373D-03 0.283D-01-0.855D-01-0.167D+00 0.122D+01
 Coeff:     -0.373D-03 0.283D-01-0.855D-01-0.167D+00 0.122D+01
 Gap=     0.437 Goal=   None    Shift=    0.000
 RMSDP=7.78D-06 MaxDP=6.66D-05 DE=-1.22D-06 OVMax= 0.00D+00

 Cycle   6  Pass 1  IDiag  1:
 E= -3056.80943020319     Delta-E=       -0.000000047685 Rises=F Damp=F
 DIIS: error= 4.07D-06 at cycle   6 NSaved=   6.
 NSaved= 6 IEnMin= 6 EnMin= -3056.80943020319     IErMin= 6 ErrMin= 4.07D-06
 ErrMax= 4.07D-06  0.00D+00 EMaxC= 1.00D-01 BMatC= 7.53D-10 BMatP= 1.47D-08
 IDIUse=1 WtCom= 1.00D+00 WtEn= 0.00D+00
 Coeff-Com: -0.551D-03 0.106D-01-0.185D-01-0.659D-01 0.191D+00 0.883D+00
 Coeff:     -0.551D-03 0.106D-01-0.185D-01-0.659D-01 0.191D+00 0.883D+00
 Gap=     0.437 Goal=   None    Shift=    0.000
 RMSDP=1.17D-06 MaxDP=1.36D-05 DE=-4.77D-08 OVMax= 0.00D+00

 Cycle   7  Pass 1  IDiag  1:
 E= -3056.80943020444     Delta-E=       -0.000000001246 Rises=F Damp=F
 DIIS: error= 7.41D-07 at cycle   7 NSaved=   7.
 NSaved= 7 IEnMin= 7 EnMin= -3056.80943020444     IErMin= 7 ErrMin= 7.41D-07
 ErrMax= 7.41D-07  0.00D+00 EMaxC= 1.00D-01 BMatC= 2.50D-11 BMatP= 7.53D-10
 IDIUse=1 WtCom= 1.00D+00 WtEn= 0.00D+00
 Coeff-Com:  0.481D-04-0.192D-02 0.527D-02 0.966D-02-0.706D-01-0.352D-01
 Coeff-Com:  0.109D+01
 Coeff:      0.481D-04-0.192D-02 0.527D-02 0.966D-02-0.706D-01-0.352D-01
 Coeff:      0.109D+01
 Gap=     0.437 Goal=   None    Shift=    0.000
 RMSDP=3.52D-07 MaxDP=4.31D-06 DE=-1.25D-09 OVMax= 0.00D+00

 Cycle   8  Pass 1  IDiag  1:
 E= -3056.80943020451     Delta-E=       -0.000000000068 Rises=F Damp=F
 DIIS: error= 1.20D-07 at cycle   8 NSaved=   8.
 NSaved= 8 IEnMin= 8 EnMin= -3056.80943020451     IErMin= 8 ErrMin= 1.20D-07
 ErrMax= 1.20D-07  0.00D+00 EMaxC= 1.00D-01 BMatC= 6.11D-13 BMatP= 2.50D-11
 IDIUse=1 WtCom= 1.00D+00 WtEn= 0.00D+00
 Coeff-Com:  0.111D-04-0.142D-03 0.204D-03 0.660D-03-0.649D-03-0.200D-01
 Coeff-Com: -0.358D-01 0.106D+01
 Coeff:      0.111D-04-0.142D-03 0.204D-03 0.660D-03-0.649D-03-0.200D-01
 Coeff:     -0.358D-01 0.106D+01
 Gap=     0.437 Goal=   None    Shift=    0.000
 RMSDP=5.18D-08 MaxDP=6.92D-07 DE=-6.82D-11 OVMax= 0.00D+00

 Cycle   9  Pass 1  IDiag  1:
 E= -3056.80943020450     Delta-E=        0.000000000004 Rises=F Damp=F
 DIIS: error= 2.88D-08 at cycle   9 NSaved=   9.
 NSaved= 9 IEnMin= 8 EnMin= -3056.80943020451     IErMin= 9 ErrMin= 2.88D-08
 ErrMax= 2.88D-08  0.00D+00 EMaxC= 1.00D-01 BMatC= 3.31D-14 BMatP= 6.11D-13
 IDIUse=1 WtCom= 1.00D+00 WtEn= 0.00D+00
 Coeff-Com: -0.274D-05 0.108D-03-0.272D-03-0.586D-03 0.389D-02 0.209D-02
 Coeff-Com: -0.495D-01-0.782D-01 0.112D+01
 Coeff:     -0.274D-05 0.108D-03-0.272D-03-0.586D-03 0.389D-02 0.209D-02
 Coeff:     -0.495D-01-0.782D-01 0.112D+01
 Gap=     0.437 Goal=   None    Shift=    0.000
 RMSDP=1.25D-08 MaxDP=1.51D-07 DE= 4.09D-12 OVMax= 0.00D+00

 Cycle  10  Pass 1  IDiag  1:
 E= -3056.80943020450     Delta-E=        0.000000000003 Rises=F Damp=F
 DIIS: error= 6.38D-09 at cycle  10 NSaved=  10.
 NSaved=10 IEnMin= 8 EnMin= -3056.80943020451     IErMin=10 ErrMin= 6.38D-09
 ErrMax= 6.38D-09  0.00D+00 EMaxC= 1.00D-01 BMatC= 2.04D-15 BMatP= 3.31D-14
 IDIUse=1 WtCom= 1.00D+00 WtEn= 0.00D+00
 Coeff-Com:  0.550D-06-0.338D-04 0.914D-04 0.167D-03-0.127D-02-0.539D-03
 Coeff-Com:  0.201D-01-0.153D-01-0.385D+00 0.138D+01
 Coeff:      0.550D-06-0.338D-04 0.914D-04 0.167D-03-0.127D-02-0.539D-03
 Coeff:      0.201D-01-0.153D-01-0.385D+00 0.138D+01
 Gap=     0.437 Goal=   None    Shift=    0.000
 RMSDP=2.94D-09 MaxDP=2.53D-08 DE= 3.18D-12 OVMax= 0.00D+00

 SCF Done:  E(RHF) =  -3056.80943020     A.U. after   10 cycles
            NFock= 10  Conv=0.29D-08     -V/T= 1.9973
 KE= 3.065127077827D+03 PE=-7.678503481681D+03 EE= 1.384481204470D+03
 Leave Link  502 at Wed Aug 28 16:21:43 2024, MaxMem=   104857600 cpu:               0.1 elap:               0.2
 (Enter /gpfs/fs1/soft/improv/software/custom-built/gaussian/g16/l801.exe)
 Range of M.O.s used for correlation:     1    51
 NBasis=    51 NAE=    31 NBE=    31 NFC=     0 NFV=     0
 NROrb=     51 NOA=    31 NOB=    31 NVA=    20 NVB=    20

 **** Warning!!: The largest alpha MO coefficient is  0.10779989D+02

 Leave Link  801 at Wed Aug 28 16:21:43 2024, MaxMem=   104857600 cpu:               0.0 elap:               0.0
 (Enter /gpfs/fs1/soft/improv/software/custom-built/gaussian/g16/l1101.exe)
 Leave Link 1101 at Wed Aug 28 16:21:43 2024, MaxMem=   104857600 cpu:               0.0 elap:               0.1
 (Enter /gpfs/fs1/soft/improv/software/custom-built/gaussian/g16/l1102.exe)
 Symmetrizing basis deriv contribution to polar:
 IMax=3 JMax=2 DiffMx= 0.00D+00
 Leave Link 1102 at Wed Aug 28 16:21:43 2024, MaxMem=   104857600 cpu:               0.0 elap:               0.0
[...]
 ErrMax= 5.78D-05  0.00D+00 EMaxC= 1.00D-01 BMatC= 6.49D-08 BMatP= 1.03D-06
 IDIUse=1 WtCom= 1.00D+00 WtEn= 0.00D+00
 Coeff-Com:  0.732D-02-0.106D+00-0.428D-01 0.114D+01
 Coeff:      0.732D-02-0.106D+00-0.428D-01 0.114D+01
 Gap=     0.421 Goal=   None    Shift=    0.000
 RMSDP=1.31D-05 MaxDP=1.33D-04 DE=-1.52D-06 OVMax= 0.00D+00

 Cycle   5  Pass 1  IDiag  1:
 E= -3056.80919566624     Delta-E=       -0.000000214814 Rises=F Damp=F
 DIIS: error= 8.01D-06 at cycle   5 NSaved=   5.
 NSaved= 5 IEnMin= 5 EnMin= -3056.80919566624     IErMin= 5 ErrMin= 8.01D-06
 ErrMax= 8.01D-06  0.00D+00 EMaxC= 1.00D-01 BMatC= 4.28D-09 BMatP= 6.49D-08
 IDIUse=1 WtCom= 1.00D+00 WtEn= 0.00D+00
 Coeff-Com:  0.184D-03 0.191D-01-0.491D-01-0.221D+00 0.125D+01
 Coeff:      0.184D-03 0.191D-01-0.491D-01-0.221D+00 0.125D+01
 Gap=     0.421 Goal=   None    Shift=    0.000
 RMSDP=3.50D-06 MaxDP=4.14D-05 DE=-2.15D-07 OVMax= 0.00D+00

 Cycle   6  Pass 1  IDiag  1:
 E= -3056.80919567804     Delta-E=       -0.000000011795 Rises=F Damp=F
 DIIS: error= 1.58D-06 at cycle   6 NSaved=   6.
 NSaved= 6 IEnMin= 6 EnMin= -3056.80919567804     IErMin= 6 ErrMin= 1.58D-06
 ErrMax= 1.58D-06  0.00D+00 EMaxC= 1.00D-01 BMatC= 1.55D-10 BMatP= 4.28D-09
 IDIUse=1 WtCom= 1.00D+00 WtEn= 0.00D+00
 Coeff-Com: -0.449D-03 0.878D-02-0.290D-02-0.856D-01 0.104D+00 0.976D+00
 Coeff:     -0.449D-03 0.878D-02-0.290D-02-0.856D-01 0.104D+00 0.976D+00
 Gap=     0.421 Goal=   None    Shift=    0.000
 RMSDP=5.97D-07 MaxDP=8.30D-06 DE=-1.18D-08 OVMax= 0.00D+00

 Cycle   7  Pass 1  IDiag  1:
 E= -3056.80919567840     Delta-E=       -0.000000000367 Rises=F Damp=F
 DIIS: error= 2.50D-07 at cycle   7 NSaved=   7.
 NSaved= 7 IEnMin= 7 EnMin= -3056.80919567840     IErMin= 7 ErrMin= 2.50D-07
 ErrMax= 2.50D-07  0.00D+00 EMaxC= 1.00D-01 BMatC= 4.06D-12 BMatP= 1.55D-10
 IDIUse=1 WtCom= 1.00D+00 WtEn= 0.00D+00
 Coeff-Com:  0.377D-04-0.183D-02 0.219D-02 0.194D-01-0.663D-01-0.103D+00
 Coeff-Com:  0.115D+01
 Coeff:      0.377D-04-0.183D-02 0.219D-02 0.194D-01-0.663D-01-0.103D+00
 Coeff:      0.115D+01
 Gap=     0.421 Goal=   None    Shift=    0.000
 RMSDP=1.15D-07 MaxDP=1.22D-06 DE=-3.67D-10 OVMax= 0.00D+00

 Cycle   8  Pass 1  IDiag  1:
 E= -3056.80919567841     Delta-E=       -0.000000000005 Rises=F Damp=F
 DIIS: error= 2.15D-08 at cycle   8 NSaved=   8.
 NSaved= 8 IEnMin= 8 EnMin= -3056.80919567841     IErMin= 8 ErrMin= 2.15D-08
 ErrMax= 2.15D-08  0.00D+00 EMaxC= 1.00D-01 BMatC= 2.42D-14 BMatP= 4.06D-12
 IDIUse=1 WtCom= 1.00D+00 WtEn= 0.00D+00
 Coeff-Com: -0.266D-05 0.195D-03-0.271D-03-0.212D-02 0.839D-02 0.707D-02
 Coeff-Com: -0.163D+00 0.115D+01
 Coeff:     -0.266D-05 0.195D-03-0.271D-03-0.212D-02 0.839D-02 0.707D-02
 Coeff:     -0.163D+00 0.115D+01
 Gap=     0.421 Goal=   None    Shift=    0.000
 RMSDP=1.02D-08 MaxDP=1.35D-07 DE=-4.55D-12 OVMax= 0.00D+00

 Cycle   9  Pass 1  IDiag  1:
 E= -3056.80919567841     Delta-E=       -0.000000000002 Rises=F Damp=F
 DIIS: error= 4.10D-09 at cycle   9 NSaved=   9.
 NSaved= 9 IEnMin= 9 EnMin= -3056.80919567841     IErMin= 9 ErrMin= 4.10D-09
 ErrMax= 4.10D-09  0.00D+00 EMaxC= 1.00D-01 BMatC= 1.24D-15 BMatP= 2.42D-14
 IDIUse=1 WtCom= 1.00D+00 WtEn= 0.00D+00
 Coeff-Com: -0.104D-05 0.475D-04-0.556D-04-0.506D-03 0.174D-02 0.267D-02
 Coeff-Com: -0.273D-01-0.629D-01 0.109D+01
 Coeff:     -0.104D-05 0.475D-04-0.556D-04-0.506D-03 0.174D-02 0.267D-02
 Coeff:     -0.273D-01-0.629D-01 0.109D+01
 Gap=     0.421 Goal=   None    Shift=    0.000
 RMSDP=2.41D-09 MaxDP=2.30D-08 DE=-1.82D-12 OVMax= 0.00D+00

 SCF Done:  E(RHF) =  -3056.80919568     A.U. after    9 cycles
            NFock=  9  Conv=0.24D-08     -V/T= 1.9972
 KE= 3.065311497118D+03 PE=-7.666248285165D+03 EE= 1.379005688684D+03
 Leave Link  502 at Wed Aug 28 16:22:05 2024, MaxMem=   104857600 cpu:               0.1 elap:               0.1
 (Enter /gpfs/fs1/soft/improv/software/custom-built/gaussian/g16/l801.exe)
 Range of M.O.s used for correlation:     1    51
 NBasis=    51 NAE=    31 NBE=    31 NFC=     0 NFV=     0
 NROrb=     51 NOA=    31 NOB=    31 NVA=    20 NVB=    20

 **** Warning!!: The largest alpha MO coefficient is  0.10723752D+02

 Leave Link  801 at Wed Aug 28 16:22:05 2024, MaxMem=   104857600 cpu:               0.0 elap:               0.0
 (Enter /gpfs/fs1/soft/improv/software/custom-built/gaussian/g16/l1101.exe)
 Leave Link 1101 at Wed Aug 28 16:22:05 2024, MaxMem=   104857600 cpu:               0.0 elap:               0.0
 (Enter /gpfs/fs1/soft/improv/software/custom-built/gaussian/g16/l1102.exe)
 Symmetrizing basis deriv contribution to polar:
 IMax=3 JMax=2 DiffMx= 0.00D+00
 Leave Link 1102 at Wed Aug 28 16:22:05 2024, MaxMem=   104857600 cpu:               0.0 elap:               0.0
 (Enter /gpfs/fs1/soft/improv/software/custom-built/gaussian/g16/l1110.exe)
 Leave Link 1110 at Wed Aug 28 16:22:05 2024, MaxMem=   104857600 cpu:               0.0 elap:               0.0
 (Enter /gpfs/fs1/soft/improv/software/custom-built/gaussian/g16/l1002.exe)
 Minotr:  Closed shell wavefunction.
 Leave Link 1002 at Wed Aug 28 16:22:05 2024, MaxMem=   104857600 cpu:               0.0 elap:               0.0
 (Enter /gpfs/fs1/soft/improv/software/custom-built/gaussian/g16/l701.exe)
 ... and contract with generalized density number  0.
 Compute integral first derivatives.
 Leave Link  701 at Wed Aug 28 16:22:05 2024, MaxMem=   104857600 cpu:               0.1 elap:               0.0
 (Enter /gpfs/fs1/soft/improv/software/custom-built/gaussian/g16/l702.exe)
 L702 exits ... SP integral derivatives will be done elsewhere.
 Leave Link  702 at Wed Aug 28 16:22:05 2024, MaxMem=   104857600 cpu:               0.0 elap:               0.0
 (Enter /gpfs/fs1/soft/improv/software/custom-built/gaussian/g16/l703.exe)
 Integral derivatives from FoFJK, PRISM(SPDF).
 Compute integral first derivatives, UseDBF=F ICtDFT=           0.
 Calling FoFJK, ICntrl=      2127 FMM=F ISym2X=0 I1Cent= 0 IOpClX= 0 NMat=1 NMatS=1 NMatT=0.
 FoFJK:  IHMeth= 1 ICntrl=    2127 DoSepK=F KAlg= 0 I1Cent=           0 FoldK=F
 IRaf=         0 NMat=       1 IRICut=       1 DoRegI=T DoRafI=F ISym2E= 0 IDoP0=0 IntGTp=1.
 FoFCou: FMM=F IPFlag=           0 FMFlag=      100000 FMFlg1=         800
         NFxFlg=           0 DoJE=F BraDBF=F KetDBF=F FulRan=T
         wScrn=  0.000000 ICntrl=      2127 IOpCl=  0 I1Cent=           0 NGrid=           0
         NMat0=    1 NMatS0=      1 NMatT0=    0 NMatD0=    1 NMtDS0=    0 NMtDT0=    0
 Symmetry not used in FoFCou.
 Leave Link  703 at Wed Aug 28 16:22:05 2024, MaxMem=   104857600 cpu:               0.2 elap:               0.2
 (Enter /gpfs/fs1/soft/improv/software/custom-built/gaussian/g16/l716.exe)
 Dipole        = 1.10667974D-01-3.30900675D-01 7.09021372D-01
 Polarizability= 0.00000000D+00 0.00000000D+00 0.00000000D+00
                 0.00000000D+00 0.00000000D+00 0.00000000D+00
 -------------------------------------------------------------------
 Center     Atomic                   Forces (Hartrees/Bohr)
 Number     Number              X              Y              Z
 -------------------------------------------------------------------
      1        6           0.000943170   -0.002911121    0.006218458
      2        1          -0.002683186    0.003023624   -0.001279468
      3        1          -0.001123797   -0.001690253   -0.003722907
      4        1           0.002664430    0.002189219   -0.002523046
      5       17           0.000377282   -0.001143707    0.002447321
      6       35          -0.000177899    0.000532237   -0.001140359
 -------------------------------------------------------------------
 Cartesian Forces:  Max     0.006218458 RMS     0.002486686
 Leave Link  716 at Wed Aug 28 16:22:05 2024, MaxMem=   104857600 cpu:               0.0 elap:               0.0
 (Enter /gpfs/fs1/soft/improv/software/custom-built/gaussian/g16/l123.exe)
 IRC-IRC-IRC-IRC-IRC-IRC-IRC-IRC-IRC-IRC-IRC-IRC-IRC-IRC-IRC-IRC-IRC-IRC
 Pt 19 Step number   1 out of a maximum of  20
 Using modified Bulirsch-Stoer corrector integration.
   Using distance weighted interpolants to fit PES.
 PreDWI: IReCr0= 1 IReCr1= 1 IReCr2= 1 IReCr3= 1
 Modified Bulirsch-Stoer Extrapolation Cycles:
    EPS =    0.000010000000000
    Cycle     1 NS=    48
      PEZero:  N= 2 I= 1 D=  1.81D-03 Err=  1.80D-02
    Cycle     2 NS=    64 Truncation Error =  0.018030163
      PEZero:  N= 3 I= 2 D=  1.81D-03 Err=  1.47D-02
      PEZero:  N= 3 I= 1 D=  3.62D-03 Err=  4.20D-03
    Cycle     3 NS=    96 Truncation Error =  0.004201917
      PEZero:  N= 4 I= 3 D=  9.06D-04 Err=  1.16D-02
      PEZero:  N= 4 I= 2 D=  2.72D-03 Err=  2.84D-03
      PEZero:  N= 4 I= 1 D=  4.53D-03 Err=  2.64D-03
    Cycle     4 NS=   128 Truncation Error =  0.002638564
      PEZero:  N= 5 I= 4 D=  9.06D-04 Err=  6.36D-03
      PEZero:  N= 5 I= 3 D=  1.81D-03 Err=  3.12D-03
      PEZero:  N= 5 I= 2 D=  3.62D-03 Err=  2.37D-03
      PEZero:  N= 5 I= 1 D=  5.44D-03 Err=  2.31D-03
    Cycle     5 NS=   192 Truncation Error =  0.002312084
      PEZero:  N= 6 I= 5 D=  4.53D-04 Err=  3.33D-03
      PEZero:  N= 6 I= 4 D=  1.36D-03 Err=  3.71D-03
    Cycle     6 NS=   256 Truncation Error =  0.003331673
      PEZero:  N= 7 I= 6 D=  4.53D-04 Err=  2.42D-03
      PEZero:  N= 7 I= 5 D=  9.06D-04 Err=  3.13D-03
    Cycle     7 NS=   384 Truncation Error =  0.002415434
      PEZero:  N= 8 I= 7 D=  2.26D-04 Err=  2.02D-03
      PEZero:  N= 8 I= 6 D=  6.79D-04 Err=  9.58D-04
      PEZero:  N= 8 I= 5 D=  1.13D-03 Err=  1.62D-03
    Cycle     8 NS=   512 Truncation Error =  0.000957872
      PEZero:  N= 9 I= 8 D=  2.26D-04 Err=  1.19D-03
      PEZero:  N= 9 I= 7 D=  4.53D-04 Err=  1.08D-03
      PEZero:  N= 9 I= 6 D=  9.06D-04 Err=  1.56D-03
    Cycle     9 NS=   768 Truncation Error =  0.001079121
      PEZero:  N=10 I= 9 D=  1.13D-04 Err=  5.51D-04
      PEZero:  N=10 I= 8 D=  3.40D-04 Err=  4.53D-04
      PEZero:  N=10 I= 7 D=  5.66D-04 Err=  8.07D-04
    Cycle    10 NS=  1024 Truncation Error =  0.000452778
      PEZero:  N=11 I=10 D=  1.13D-04 Err=  3.40D-04
      PEZero:  N=11 I= 9 D=  2.26D-04 Err=  8.15D-04
    Cycle    11 NS=  1536 Truncation Error =  0.000340172
 Maximum DWI energy   std dev =  0.000062267 at pt  1535
 Maximum DWI gradient std dev =  1.527935453 at pt  1535
 WARNING: Bulirsch-Stoer Method is not Converging
 SUMMARY OF CORRECTOR INTEGRATION:
   Predictor End Point Energy = -3056.809196
   Old End Point Energy       = -3056.809196
   Corrected End Point Energy = -3056.809294
   Predictor End-Start Dist.  =     0.347851
   Old End-Start Dist.        =     0.347851
   New End-Start Dist.        =     0.137826
   New End-Old End Dist.      =     0.213966
 Point Number:   9          Path Number:   2
                    CURRENT STRUCTURE
                Cartesian Coordinates (Ang):                
 ---------------------------------------------------------------------
 Center     Atomic                     Coordinates (Angstroms)
 Number     Number                        X           Y           Z
 ---------------------------------------------------------------------
      1          6                    0.184266   -0.550856    1.180344
      2          1                   -0.594005    0.151694    1.359756
      3          1                   -0.088452   -1.376510    0.567632
      4          1                    1.133569   -0.123496    0.961734
      5         17                    0.465469   -1.391628    2.981872
      6         35                   -0.238943    0.714355   -1.530669
 ---------------------------------------------------------------------
   CHANGE IN THE REACTION COORDINATE =    0.13783
   NET REACTION COORDINATE UP TO THIS POINT =    2.90985
  # OF POINTS ALONG THE PATH =  19
  # OF STEPS =   1

 PES minimum detected on this side of the pathway.
    Magnitude of the gradient =      0.0000554
 Calculation of REVERSE path complete.
 Reaction path calculation complete.
 
 Energies reported relative to the TS energy of       -3056.805304
 --------------------------------------------------------------------------
    Summary of reaction path following
 --------------------------------------------------------------------------
                        Energy    RxCoord
   1                   -0.00399  -2.90985
   2                   -0.00393  -2.77203
   3                   -0.00370  -2.42805
   4                   -0.00339  -2.08068
   5                   -0.00299  -1.73613
   6                   -0.00239  -1.39061
   7                   -0.00162  -1.04328
   8                   -0.00083  -0.69557
   9                   -0.00024  -0.34783
  10                    0.00000   0.00000
  11                   -0.00025   0.34775
  12                   -0.00104   0.69555
  13                   -0.00236   1.04337
  14                   -0.00413   1.39118
  15                   -0.00621   1.73901
  16                   -0.00843   2.08683
  17                   -0.01060   2.43468
  18                   -0.01252   2.78225
  19                   -0.01397   3.12873
  20                   -0.01503   3.46473
 --------------------------------------------------------------------------
 
 Total number of points:                   19
 Total number of gradient calculations:    19
 Total number of Hessian calculations:      0
 IRC-IRC-IRC-IRC-IRC-IRC-IRC-IRC-IRC-IRC-IRC-IRC-IRC-IRC-IRC-IRC-IRC-IRC
 Leave Link  123 at Wed Aug 28 16:22:05 2024, MaxMem=   104857600 cpu:               0.3 elap:               0.3
 (Enter /gpfs/fs1/soft/improv/software/custom-built/gaussian/g16/l202.exe)
                          Input orientation:                          
 ---------------------------------------------------------------------
 Center     Atomic      Atomic             Coordinates (Angstroms)
 Number     Number       Type             X           Y           Z
 ---------------------------------------------------------------------
      1          6           0        0.185805   -0.555525    1.190332
      2          1           0       -0.590885    0.143039    1.377468
      3          1           0       -0.085572   -1.384421    0.585730
      4          1           0        1.135796   -0.132064    0.979686
      5         17           0        0.467460   -1.397559    2.994586
      6         35           0       -0.239818    0.716983   -1.536297
 ---------------------------------------------------------------------
                    Distance matrix (angstroms):
                    1          2          3          4          5
     1  C    0.000000
     2  H    1.061253   0.000000
     3  H    1.061253   1.793132   0.000000
     4  H    1.061213   1.793137   1.793137   0.000000
     5  Cl   2.010892   2.471560   2.471559   2.471431   0.000000
     6  Br   3.038903   2.990432   2.990432   2.990546   5.049795
                    6
     6  Br   0.000000
 Symmetry turned off by external request.
 Stoichiometry    CH3BrCl(1-)
 Framework group  C1[X(CH3BrCl)]
 Deg. of freedom    12
 Full point group                 C1      NOp   1
 Rotational constants (GHZ):         155.9574046           0.7808127           0.7808127
 Leave Link  202 at Wed Aug 28 16:22:06 2024, MaxMem=   104857600 cpu:               0.0 elap:               0.0
 (Enter /gpfs/fs1/soft/improv/software/custom-built/gaussian/g16/l601.exe)
 Copying SCF densities to generalized density rwf, IOpCl= 0 IROHF=0.

 **********************************************************************

            Population analysis using the SCF Density.

 **********************************************************************

 Alpha  occ. eigenvalues -- -486.43952-103.93177 -64.45310 -57.63884 -57.63860
 Alpha  occ. eigenvalues --  -57.63860 -11.10788 -10.32434  -9.44626  -7.78801
 Alpha  occ. eigenvalues --   -7.78489  -7.78489  -7.02168  -7.02077  -7.02077
 Alpha  occ. eigenvalues --   -2.74958  -2.74923  -2.74923  -2.74823  -2.74823
 Alpha  occ. eigenvalues --   -0.94356  -0.79160  -0.66538  -0.48746  -0.48744
 Alpha  occ. eigenvalues --   -0.34396  -0.29390  -0.29390  -0.12431  -0.12431
 Alpha  occ. eigenvalues --   -0.12246
 Alpha virt. eigenvalues --    0.29819   0.42444   0.47299   0.47300   0.86864
 Alpha virt. eigenvalues --    0.94353   0.94354   0.98936   1.05163   1.06115
 Alpha virt. eigenvalues --    1.06117   1.10921   1.13965   1.13965   1.41572
 Alpha virt. eigenvalues --    1.48648   1.48651   1.50557   2.03947  24.25967
          Condensed to atoms (all electrons):
               1          2          3          4          5          6
     1  C    5.356341   0.361932   0.361932   0.361937   0.104350  -0.001219
     2  H    0.361932   0.424830  -0.017434  -0.017430  -0.036473   0.003716
     3  H    0.361932  -0.017434   0.424830  -0.017430  -0.036473   0.003716
     4  H    0.361937  -0.017430  -0.017430   0.424832  -0.036487   0.003713
     5  Cl   0.104350  -0.036473  -0.036473  -0.036487  17.380055   0.001489
     6  Br  -0.001219   0.003716   0.003716   0.003713   0.001489  35.909437
 Mulliken charges:
               1
     1  C   -0.545273
     2  H    0.280860
     3  H    0.280860
     4  H    0.280865
     5  Cl  -0.376461
     6  Br  -0.920851
 Sum of Mulliken charges =  -1.00000
 Mulliken charges with hydrogens summed into heavy atoms:
               1
     1  C    0.297312
     5  Cl  -0.376461
     6  Br  -0.920851
 APT charges:
               1
     1  C   -0.786494
     2  H    0.415406
     3  H    0.415406
     4  H    0.415462
     5  Cl  -0.549709
     6  Br  -0.910071
 Sum of APT charges =  -1.00000
 APT charges with hydrogens summed into heavy atoms:
               1
     1  C    0.459780
     5  Cl  -0.549709
     6  Br  -0.910071
 Electronic spatial extent (au):  <R**2>=           1225.1878
 Charge=             -1.0000 electrons
 Dipole moment (field-independent basis, Debye):
    X=              0.2813    Y=             -0.8411    Z=              1.8022  Tot=              2.0085
 Quadrupole moment (field-independent basis, Debye-Ang):
   XX=            -42.2230   YY=            -48.0843   ZZ=            -71.7845
   XY=              2.2074   XZ=             -4.7297   YZ=             14.1408
 Traceless Quadrupole moment (field-independent basis, Debye-Ang):
   XX=             11.8076   YY=              5.9463   ZZ=            -17.7539
   XY=              2.2074   XZ=             -4.7297   YZ=             14.1408
 Octapole moment (field-independent basis, Debye-Ang**2):
  XXX=             -7.6798  YYY=             28.3757  ZZZ=            -98.4114  XYY=             -4.7332
  XXY=              9.3560  XXZ=            -18.2681  XZZ=            -10.1232  YZZ=             29.6476
  YYZ=            -27.6953  XYZ=              3.0504
 Hexadecapole moment (field-independent basis, Debye-Ang**3):
 XXXX=            -79.1335 YYYY=           -302.1986 ZZZZ=          -1354.0003 XXXY=             40.8622
 XXXZ=            -86.7245 YYYX=             44.0251 YYYZ=            278.3566 ZZZX=           -117.0060
 ZZZY=            347.9601 XXYY=            -64.1227 XXZZ=           -211.4112 YYZZ=           -284.8827
 XXYZ=             89.1188 YYXZ=            -35.5686 ZZXY=             26.7927
 N-N= 1.651219036848D+02 E-N=-7.666248284691D+03  KE= 3.065311497118D+03
  Exact polarizability:       0.000       0.000       0.000       0.000       0.000       0.000
 Approx polarizability:      12.360      -1.775      17.073       3.804     -11.371      36.132
 No NMR shielding tensors so no spin-rotation constants.
 Leave Link  601 at Wed Aug 28 16:22:06 2024, MaxMem=   104857600 cpu:               0.0 elap:               0.1
 (Enter /gpfs/fs1/soft/improv/software/custom-built/gaussian/g16/l9999.exe)

 This type of calculation cannot be archived.


 WOE UNTO THEM THAT CALL EVIL GOOD, AND GOOD EVIL      
 Job cpu time:       0 days  0 hours  0 minutes 18.4 seconds.
 Elapsed time:       0 days  0 hours  0 minutes 18.6 seconds.
 File lengths (MBytes):  RWF=     72 Int=      0 D2E=      0 Chk=      8 Scr=      8
 Normal termination of Gaussian 16 at Wed Aug 28 16:22:06 2024.
