 Entering Gaussian System, Link 0=g16
 Input=example1_IRC.com
 Output=example1_IRC.log
 Initial command:
 /gpfs/fs1/soft/improv/software/custom-built/gaussian/g16/l1.exe "/gpfs/fs1/home/hharb/testrun/Gaussian/IRC_example/Gau-3395598.inp" -scrdir="/gpfs/fs1/home/hharb/testrun/Gaussian/IRC_example/"
 Entering Link 1 = /gpfs/fs1/soft/improv/software/custom-built/gaussian/g16/l1.exe PID=   3395599.
  
 Copyright (c) 1988-2021, Gaussian, Inc.  All Rights Reserved.
  
 This is part of the Gaussian(R) 16 program.  It is based on
 the Gaussian(R) 09 system (copyright 2009, Gaussian, Inc.),
 the Gaussian(R) 03 system (copyright 2003, Gaussian, Inc.),
 the Gaussian(R) 98 system (copyright 1998, Gaussian, Inc.),
 the Gaussian(R) 94 system (copyright 1995, Gaussian, Inc.),
 the Gaussian 92(TM) system (copyright 1992, Gaussian, Inc.),
 the Gaussian 90(TM) system (copyright 1990, Gaussian, Inc.),
 the Gaussian 88(TM) system (copyright 1988, Gaussian, Inc.),
 the Gaussian 86(TM) system (copyright 1986, Carnegie Mellon
 University), and the Gaussian 82(TM) system (copyright 1983,
 Carnegie Mellon University). Gaussian is a federally registered
 trademark of Gaussian, Inc.
  
 This software contains proprietary and confidential information,
 including trade secrets, belonging to Gaussian, Inc.
  
 This software is provided under written license and may be
 used, copied, transmitted, or stored only in accord with that
 written license.
  
 The following legend is applicable only to US Government
 contracts under FAR:
  
                    RESTRICTED RIGHTS LEGEND
  
 Use, reproduction and disclosure by the US Government is
 subject to restrictions as set forth in subparagraphs (a)
 and (c) of the Commercial Computer Software - Restricted
 Rights clause in FAR 52.227-19.
  
 Gaussian, Inc.
 340 Quinnipiac St., Bldg. 40, Wallingford CT 06492
  
  
 ---------------------------------------------------------------
 Warning -- This program may not be used in any manner that
 competes with the business of Gaussian, Inc. or will provide
 assistance to any competitor of Gaussian, Inc.  The licensee
 of this program is prohibited from giving any competitor of
 Gaussian, Inc. access to this program.  By using this program,
 the user acknowledges that Gaussian, Inc. is engaged in the
 business of creating and licensing software in the field of
 computational chemistry and represents and warrants to the
 licensee that it is not a competitor of Gaussian, Inc. and that
 it will not use this program in any manner prohibited above.
 ---------------------------------------------------------------
  

 Cite this work as:
 Gaussian 16, Revision C.02,
 M. J. Frisch, G. W. Trucks, H. B. Schlegel, G. E. Scuseria, 
 M. A. Robb, J. R. Cheeseman, G. Scalmani, V. Barone, 
 G. A. Petersson, H. Nakatsuji, X. Li, M. Caricato, A. V. Marenich, 
 J. Bloino, B. G. Janesko, R. Gomperts, B. Mennucci, H. P. Hratchian, 
 J. V. Ortiz, A. F. Izmaylov, J. L. Sonnenberg, D. Williams-Young, 
 F. Ding, F. Lipparini, F. Egidi, J. Goings, B. Peng, A. Petrone, 
 T. Henderson, D. Ranasinghe, V. G. Zakrzewski, J. Gao, N. Rega, 
 G. Zheng, W. Liang, M. Hada, M. Ehara, K. Toyota, R. Fukuda, 
 J. Hasegawa, M. Ishida, T. Nakajima, Y. Honda, O. Kitao, H. Nakai, 
 T. Vreven, K. Throssell, J. A. Montgomery, Jr., J. E. Peralta, 
 F. Ogliaro, M. J. Bearpark, J. J. Heyd, E. N. Brothers, K. N. Kudin, 
 V. N. Staroverov, T. A. Keith, R. Kobayashi, J. Normand, 
 K. Raghavachari, A. P. Rendell, J. C. Burant, S. S. Iyengar, 
 J. Tomasi, M. Cossi, J. M. Millam, M. Klene, C. Adamo, R. Cammi, 
 J. W. Ochterski, R. L. Martin, K. Morokuma, O. Farkas, 
 J. B. Foresman, and D. J. Fox, Gaussian, Inc., Wallingford CT, 2019.
 
 ******************************************
 Gaussian 16:  ES64L-G16RevC.02  7-Dec-2021
                28-Aug-2024 
 ******************************************
 %oldchk=example1.chk
 %chk=example1_IRC
 Copying data from "example1.chk" to current chk file "example1_IRC.chk"
 IOpt=  2 FromEx=T IUOpen= 4 IOptOp= 5 NList=   0 IFRang= 0 IUIn= 4 IUOut= 2.
 ----------------------------------------------------------------------
 # hf geom=allcheck guess=read chkbasis IRC=(readcartesian,recorrect=ne
 ver)
 ----------------------------------------------------------------------
 1/10=5,18=10,29=7,38=1,44=3,131=1,172=1/1,23;
 2/12=2,29=1,40=1/2;
 3/5=7,6=2,11=9,14=-4,25=1,30=1,67=1,71=2,116=-2,140=1/1,2,3;
 4/5=1/1;
 5/5=2,38=6/2;
 8/6=4,10=90,11=11/1;
 11/6=1,8=1,9=11,15=111,16=1/1,2,10;
 10/6=1,13=1/2;
 6/7=2,8=2,9=2,10=2,28=1/1;
 7/10=1,25=1/1,2,3,16;
 1/18=10,44=3,131=1/23(2);
 2/29=1/2;
 99/5=20/99;
 2/29=1/2;
 3/5=7,6=1,11=9,14=-2,25=1,30=1,71=2,82=7,140=1/1,2,3;
 4/5=5,16=3,69=1/1;
 5/5=2,38=5/2;
 8/6=4,10=90,11=11/1;
 11/6=1,8=1,9=11,15=111,16=1/1,2,10;
 10/6=1,13=1/2;
 7/10=1,25=1/1,2,3,16;
 1/18=10,44=3,131=1/23(-8);
 2/29=1/2;
 6/7=2,8=2,9=2,10=2,19=2,28=1/1;
 99/5=20,9=1/99;
 Structure from the checkpoint file:  "example1_IRC.chk"
 -------------------
 Title Card Required
 -------------------
 Charge = -1 Multiplicity = 1
 Redundant internal coordinates found in file.  (old form).
 C,0,-7.5282987986,0.405478948,-0.0742246483
 H,0,-8.2973940258,1.0429907586,0.2822049976
 H,0,-7.7804693556,-0.519570309,-0.5277274571
 H,0,-6.530534099,0.761790021,-0.1248316656
 Cl,0,-7.2053925983,-0.5606528135,1.9957725547
 Br,0,-7.8944159731,1.4993981065,-2.4183331505
 Recover connectivity data from disk.
 IRC-IRC-IRC-IRC-IRC-IRC-IRC-IRC-IRC-IRC-IRC-IRC-IRC-IRC-IRC-IRC-IRC-IRC
 ------------------------------------------------------------------------
 INPUT DATA FOR L123
 ------------------------------------------------------------------------
 GENERAL PARAMETERS:
 Follow reaction path in both directions.
 Maximum points per path      =  10
 Step size                    =   0.100 bohr
 Integration scheme           = HPC                                 
    Redo corrector integration= Never                               
    DWI Weight Power          =  2
    DWI will use Hessian update vectors when possible.
 Initial Hessian              = ReadFC from chk
 Hessian evaluation           = All updating
 Hessian updating method      = Bofill                              
 ------------------------------------------------------------------------
          ******** Start new reaction path calculation ********
 RCFC Option Requested - Data Read From Chk File:
 "example1_IRC.chk"
   Energy From Chk =  -3056.8053036

 Supplied step size of   0.1000 bohr.
    Integration on MW PES will use step size of   0.3479 sqrt(amu)*bohr.
 Point Number:   0          Path Number:   1
 Calculating another point on the path.
 IRC-IRC-IRC-IRC-IRC-IRC-IRC-IRC-IRC-IRC-IRC-IRC-IRC-IRC-IRC-IRC-IRC-IRC
                          Input orientation:                          
 ---------------------------------------------------------------------
 Center     Atomic      Atomic             Coordinates (Angstroms)
 Number     Number       Type             X           Y           Z
 ---------------------------------------------------------------------
      1          6           0        0.129713   -0.387183    0.829759
      2          1           0       -0.634801    0.233876    1.224299
      3          1           0       -0.117019   -1.331277    0.413023
      4          1           0        1.134988   -0.047789    0.816583
      5         17           0        0.460641   -1.377303    2.951154
      6         35           0       -0.228728    0.683783   -1.465169
 ---------------------------------------------------------------------
                    Distance matrix (angstroms):
                    1          2          3          4          5
     1  C    0.000000
     2  H    1.061065   0.000000
     3  H    1.061065   1.837382   0.000000
     4  H    1.061103   1.837858   1.837859   0.000000
     5  Cl   2.364353   2.603443   2.603443   2.603602   0.000000
     6  Br   2.557761   2.756910   2.756910   2.757048   4.922114
                    6
     6  Br   0.000000
 Symmetry turned off by external request.
 Stoichiometry    CH3BrCl(1-)
 Framework group  C1[X(CH3BrCl)]
 Deg. of freedom    12
 Full point group                 C1      NOp   1
 Rotational constants (GHZ):         148.4851224           0.8377892           0.8377876
 Basis read from chk: "example1_IRC.chk" (6D, 7F)
    51 basis functions,   108 primitive gaussians,    51 cartesian basis functions
    31 alpha electrons       31 beta electrons
       nuclear repulsion energy       170.6055242277 Hartrees.
 NAtoms=    6 NActive=    6 NUniq=    6 SFac= 1.00D+00 NAtFMM=   60 NAOKFM=F Big=F
 Integral buffers will be    131072 words long.
 Raffenetti 1 integral format.
 Two-electron integral symmetry is turned off.
 One-electron integrals computed using PRISM.
 NBasis=    51 RedAO= T EigKep=  4.90D-03  NBF=    51
 NBsUse=    51 1.00D-06 EigRej= -1.00D+00 NBFU=    51
 Initial guess from the checkpoint file:  "example1_IRC.chk"
 B after Tr=     0.030572   -0.091389    0.195824
         Rot=   -0.309706    0.688558   -0.496647    0.428150 Ang= 216.08 deg.
 Keep R1 ints in memory in canonical form, NReq=1713103.
 Requested convergence on RMS density matrix=1.00D-08 within 128 cycles.
 Requested convergence on MAX density matrix=1.00D-06.
 Requested convergence on             energy=1.00D-06.
 No special actions if energy rises.
 SCF Done:  E(RHF) =  -3056.80555165     A.U. after   10 cycles
            NFock= 10  Conv=0.16D-08     -V/T= 1.9973
 Range of M.O.s used for correlation:     1    51
 NBasis=    51 NAE=    31 NBE=    31 NFC=     0 NFV=     0
 NROrb=     51 NOA=    31 NOB=    31 NVA=    20 NVB=    20

 **** Warning!!: The largest alpha MO coefficient is  0.10771469D+02

 Symmetrizing basis deriv contribution to polar:
 IMax=3 JMax=2 DiffMx= 0.00D+00

 **********************************************************************

            Population analysis using the SCF Density.

 **********************************************************************

 Alpha  occ. eigenvalues -- -486.50541-103.84737 -64.51901 -57.70498 -57.70430
 Alpha  occ. eigenvalues --  -57.70430 -11.12165 -10.23690  -9.51212  -7.70011
 Alpha  occ. eigenvalues --   -7.69863  -7.69863  -7.08899  -7.08559  -7.08559
 Alpha  occ. eigenvalues --   -2.81731  -2.81588  -2.81588  -2.81205  -2.81205
 Alpha  occ. eigenvalues --   -0.85997  -0.78861  -0.71649  -0.49293  -0.49283
 Alpha  occ. eigenvalues --   -0.26790  -0.22411  -0.22411  -0.17916  -0.17916
 Alpha  occ. eigenvalues --   -0.16098
 Alpha virt. eigenvalues --    0.27078   0.41175   0.47533   0.47536   0.90921
 Alpha virt. eigenvalues --    0.98738   0.98748   0.99779   1.04092   1.04094
 Alpha virt. eigenvalues --    1.09592   1.13063   1.13071   1.14389   1.38844
 Alpha virt. eigenvalues --    1.49010   1.49019   1.49215   1.98905  24.33952
          Condensed to atoms (all electrons):
               1          2          3          4          5          6
     1  C    5.209252   0.372162   0.372162   0.372179   0.033014   0.059452
     2  H    0.372162   0.411402  -0.018006  -0.017961  -0.019483  -0.011648
     3  H    0.372162  -0.018006   0.411402  -0.017961  -0.019483  -0.011648
     4  H    0.372179  -0.017961  -0.017961   0.411345  -0.019482  -0.011651
     5  Cl   0.033014  -0.019483  -0.019483  -0.019482  17.744231   0.002659
     6  Br   0.059452  -0.011648  -0.011648  -0.011651   0.002659  35.683760
 Mulliken charges:
               1
     1  C   -0.418221
     2  H    0.283535
     3  H    0.283535
     4  H    0.283531
     5  Cl  -0.721456
     6  Br  -0.710924
 Sum of Mulliken charges =  -1.00000
 Mulliken charges with hydrogens summed into heavy atoms:
               1
     1  C    0.432380
     5  Cl  -0.721456
     6  Br  -0.710924
 Electronic spatial extent (au):  <R**2>=           1157.4159
 Charge=             -1.0000 electrons
 Dipole moment (field-independent basis, Debye):
    X=             -0.5518    Y=              1.6509    Z=             -3.5371  Tot=              3.9422
 Quadrupole moment (field-independent basis, Debye-Ang):
   XX=            -42.3476   YY=            -49.8301   ZZ=            -80.0791
   XY=              2.8177   XZ=             -6.0362   YZ=             18.0481
 Traceless Quadrupole moment (field-independent basis, Debye-Ang):
   XX=             15.0713   YY=              7.5888   ZZ=            -22.6602
   XY=              2.8177   XZ=             -6.0362   YZ=             18.0481
 Octapole moment (field-independent basis, Debye-Ang**2):
  XXX=             -8.3939  YYY=             34.2080  ZZZ=           -141.7358  XYY=             -6.3396
  XXY=             10.5398  XXZ=            -20.5733  XZZ=            -16.4786  YZZ=             48.5685
  YYZ=            -37.6417  XYZ=              5.8630
 Hexadecapole moment (field-independent basis, Debye-Ang**3):
 XXXX=            -78.1085 YYYY=           -296.8334 ZZZZ=          -1397.2591 XXXY=             39.4173
 XXXZ=            -83.6812 YYYX=             43.7770 YYYZ=            277.0070 ZZZX=           -127.1456
 ZZZY=            378.4029 XXYY=            -62.7532 XXZZ=           -206.0666 YYZZ=           -294.9248
 XXYZ=             86.6679 YYXZ=            -37.3778 ZZXY=             32.6427
 N-N= 1.706055242277D+02 E-N=-7.676237404373D+03  KE= 3.065161220786D+03
  Exact polarizability:       0.000       0.000       0.000       0.000       0.000       0.000
 Approx polarizability:      12.710      -2.911      20.440       6.240     -18.655      51.707
 Calling FoFJK, ICntrl=      2127 FMM=F ISym2X=0 I1Cent= 0 IOpClX= 0 NMat=1 NMatS=1 NMatT=0.
 -------------------------------------------------------------------
 Center     Atomic                   Forces (Hartrees/Bohr)
 Number     Number              X              Y              Z
 -------------------------------------------------------------------
      1        6          -0.000736503    0.002064071   -0.004452126
      2        1           0.000420480   -0.000299332   -0.000141274
      3        1           0.000174851    0.000443244    0.000243610
      4        1          -0.000536003   -0.000205172    0.000053690
      5       17           0.000263138   -0.000774741    0.001662611
      6       35           0.000414036   -0.001228069    0.002633489
 -------------------------------------------------------------------
 Cartesian Forces:  Max     0.004452126 RMS     0.001444873
 IRC-IRC-IRC-IRC-IRC-IRC-IRC-IRC-IRC-IRC-IRC-IRC-IRC-IRC-IRC-IRC-IRC-IRC
 Pt  1 Step number   1 out of a maximum of  20
 Modified Bulirsch-Stoer Extrapolation Cycles:
    EPS =    0.000010000000000
      PEZero:  N= 2 I= 1 D=  9.06D-04 Err=  6.72D-03
      PEZero:  N= 3 I= 2 D=  9.06D-04 Err=  1.76D-03
      PEZero:  N= 3 I= 1 D=  1.81D-03 Err=  4.08D-03
      PEZero:  N= 4 I= 3 D=  4.53D-04 Err=  1.21D-03
      PEZero:  N= 4 I= 2 D=  1.36D-03 Err=  1.41D-04
      PEZero:  N= 4 I= 1 D=  2.27D-03 Err=  1.22D-03
      PEZero:  N= 5 I= 4 D=  4.53D-04 Err=  7.95D-04
      PEZero:  N= 5 I= 3 D=  9.06D-04 Err=  1.95D-05
      PEZero:  N= 5 I= 2 D=  1.81D-03 Err=  5.08D-05
      PEZero:  N= 6 I= 5 D=  2.27D-04 Err=  5.92D-04
      PEZero:  N= 6 I= 4 D=  6.80D-04 Err=  5.53D-06
      PEZero:  N= 6 I= 3 D=  1.13D-03 Err=  5.05D-06
      PEZero:  N= 6 I= 2 D=  2.04D-03 Err=  5.14D-05
 Maximum DWI energy   std dev =  0.000001830 at pt    34
 Maximum DWI gradient std dev =  0.324350082 at pt     4
 Point Number:   1          Path Number:   1
   CHANGE IN THE REACTION COORDINATE =    0.34775
   NET REACTION COORDINATE UP TO THIS POINT =    0.34775
  # OF POINTS ALONG THE PATH =   1
  # OF STEPS =   1

 Calculating another point on the path.
 IRC-IRC-IRC-IRC-IRC-IRC-IRC-IRC-IRC-IRC-IRC-IRC-IRC-IRC-IRC-IRC-IRC-IRC
                          Input orientation:                          
 ---------------------------------------------------------------------
 Center     Atomic      Atomic             Coordinates (Angstroms)
 Number     Number       Type             X           Y           Z
 ---------------------------------------------------------------------
      1          6           0        0.122601   -0.366206    0.784750
      2          1           0       -0.636039    0.237336    1.218122
      3          1           0       -0.117936   -1.328785    0.406344
      4          1           0        1.134329   -0.044684    0.810171
      5         17           0        0.461627   -1.380216    2.957404
      6         35           0       -0.228054    0.681788   -1.460889
 ---------------------------------------------------------------------
                    Distance matrix (angstroms):
                    1          2          3          4          5
     1  C    0.000000
     2  H    1.061889   0.000000
     3  H    1.061889   1.838519   0.000000
     4  H    1.061893   1.838521   1.838521   0.000000
     5  Cl   2.421483   2.616571   2.616571   2.616636   0.000000
     6  Br   2.502827   2.746105   2.746105   2.746191   4.924311
                    6
     6  Br   0.000000
 Symmetry turned off by external request.
 Stoichiometry    CH3BrCl(1-)
 Framework group  C1[X(CH3BrCl)]
 Deg. of freedom    12
 Full point group                 C1      NOp   1
 Rotational constants (GHZ):         148.3525780           0.8388235           0.8388235
 Basis read from rwf:  (6D, 7F)
    51 basis functions,   108 primitive gaussians,    51 cartesian basis functions
    31 alpha electrons       31 beta electrons
       nuclear repulsion energy       171.0122778453 Hartrees.
 NAtoms=    6 NActive=    6 NUniq=    6 SFac= 1.00D+00 NAtFMM=   60 NAOKFM=F Big=F
 Integral buffers will be    131072 words long.
 Raffenetti 1 integral format.
 Two-electron integral symmetry is turned off.
 One-electron integrals computed using PRISM.
 NBasis=    51 RedAO= T EigKep=  4.89D-03  NBF=    51
 NBsUse=    51 1.00D-06 EigRej= -1.00D+00 NBFU=    51
 Initial guess from the checkpoint file:  "example1_IRC.chk"
 B after Tr=    -0.000159    0.000482   -0.001032
         Rot=    1.000000   -0.000000    0.000000    0.000000 Ang=   0.00 deg.
 ExpMin= 1.65D-01 ExpMax= 6.10D+03 ExpMxC= 6.10D+03 IAcc=3 IRadAn=         5 AccDes= 0.00D+00
 Harris functional with IExCor=  205 and IRadAn=       5 diagonalized for initial guess.
 HarFok:  IExCor=  205 AccDes= 0.00D+00 IRadAn=         5 IDoV= 1 UseB2=F ITyADJ=14
 ICtDFT=  3500011 ScaDFX=  1.000000  1.000000  1.000000  1.000000
 FoFCou: FMM=F IPFlag=           0 FMFlag=      100000 FMFlg1=           0
         NFxFlg=           0 DoJE=T BraDBF=F KetDBF=T FulRan=T
         wScrn=  0.000000 ICntrl=       500 IOpCl=  0 I1Cent=   200000004 NGrid=           0
         NMat0=    1 NMatS0=      1 NMatT0=    0 NMatD0=    1 NMtDS0=    0 NMtDT0=    0
 Symmetry not used in FoFCou.
 Keep R1 ints in memory in canonical form, NReq=1713103.
 Requested convergence on RMS density matrix=1.00D-08 within 128 cycles.
 Requested convergence on MAX density matrix=1.00D-06.
 Requested convergence on             energy=1.00D-06.
 No special actions if energy rises.
 SCF Done:  E(RHF) =  -3056.80634058     A.U. after    9 cycles
            NFock=  9  Conv=0.48D-08     -V/T= 1.9973
 Range of M.O.s used for correlation:     1    51
 NBasis=    51 NAE=    31 NBE=    31 NFC=     0 NFV=     0
 NROrb=     51 NOA=    31 NOB=    31 NVA=    20 NVB=    20

 **** Warning!!: The largest alpha MO coefficient is  0.10774697D+02

 Symmetrizing basis deriv contribution to polar:
 IMax=3 JMax=2 DiffMx= 0.00D+00
 Calling FoFJK, ICntrl=      2127 FMM=F ISym2X=0 I1Cent= 0 IOpClX= 0 NMat=1 NMatS=1 NMatT=0.
 -------------------------------------------------------------------
 Center     Atomic                   Forces (Hartrees/Bohr)
 Number     Number              X              Y              Z
 -------------------------------------------------------------------
      1        6          -0.001399441    0.004175586   -0.008948876
      2        1           0.000805033   -0.000621860   -0.000519683
      3        1           0.000249287    0.001058035    0.000351069
      4        1          -0.001095242   -0.000319184   -0.000083236
      5       17           0.000570963   -0.001701691    0.003647387
      6       35           0.000869400   -0.002590887    0.005553337
 -------------------------------------------------------------------
 Cartesian Forces:  Max     0.008948876 RMS     0.002964865
 IRC-IRC-IRC-IRC-IRC-IRC-IRC-IRC-IRC-IRC-IRC-IRC-IRC-IRC-IRC-IRC-IRC-IRC
 Pt  2 Step number   1 out of a maximum of  20
 Modified Bulirsch-Stoer Extrapolation Cycles:
    EPS =    0.000010000000000
      PEZero:  N= 2 I= 1 D=  1.81D-03 Err=  6.75D-06
 Maximum DWI energy   std dev =  0.000004282 at pt    41
 Maximum DWI gradient std dev =  0.228209159 at pt    36
 Point Number:   2          Path Number:   1
   CHANGE IN THE REACTION COORDINATE =    0.34780
   NET REACTION COORDINATE UP TO THIS POINT =    0.69555
  # OF POINTS ALONG THE PATH =   2
  # OF STEPS =   1

 Calculating another point on the path.
 IRC-IRC-IRC-IRC-IRC-IRC-IRC-IRC-IRC-IRC-IRC-IRC-IRC-IRC-IRC-IRC-IRC-IRC
                          Input orientation:                          
 ---------------------------------------------------------------------
 Center     Atomic      Atomic             Coordinates (Angstroms)
 Number     Number       Type             X           Y           Z
 ---------------------------------------------------------------------
      1          6           0        0.115560   -0.345204    0.739738
      2          1           0       -0.636038    0.239919    1.209834
      3          1           0       -0.118758   -1.323716    0.399344
      4          1           0        1.131513   -0.041638    0.802497
      5         17           0        0.462599   -1.383113    2.963613
      6         35           0       -0.227386    0.679796   -1.456620
 ---------------------------------------------------------------------
                    Distance matrix (angstroms):
                    1          2          3          4          5
     1  C    0.000000
     2  H    1.062195   0.000000
     3  H    1.062195   1.835600   0.000000
     4  H    1.062192   1.835602   1.835602   0.000000
     5  Cl   2.478569   2.630014   2.630014   2.630099   0.000000
     6  Br   2.447902   2.733215   2.733215   2.733254   4.926472
                    6
     6  Br   0.000000
 Symmetry turned off by external request.
 This structure is nearly, but not quite of a higher symmetry.
 Consider Symm=Loose if the higher symmetry is desired.
 Stoichiometry    CH3BrCl(1-)
 Framework group  C1[X(CH3BrCl)]
 Deg. of freedom    12
 Full point group                 C1      NOp   1
 Rotational constants (GHZ):         148.8248342           0.8397979           0.8397979
 Basis read from rwf:  (6D, 7F)
    51 basis functions,   108 primitive gaussians,    51 cartesian basis functions
    31 alpha electrons       31 beta electrons
       nuclear repulsion energy       171.5086876222 Hartrees.
 NAtoms=    6 NActive=    6 NUniq=    6 SFac= 1.00D+00 NAtFMM=   60 NAOKFM=F Big=F
 Integral buffers will be    131072 words long.
 Raffenetti 1 integral format.
 Two-electron integral symmetry is turned off.
 One-electron integrals computed using PRISM.
 NBasis=    51 RedAO= T EigKep=  4.89D-03  NBF=    51
 NBsUse=    51 1.00D-06 EigRej= -1.00D+00 NBFU=    51
 Initial guess from the checkpoint file:  "example1_IRC.chk"
 B after Tr=    -0.000185    0.000549   -0.001178
         Rot=    1.000000    0.000000   -0.000000   -0.000000 Ang=   0.00 deg.
 ExpMin= 1.65D-01 ExpMax= 6.10D+03 ExpMxC= 6.10D+03 IAcc=3 IRadAn=         5 AccDes= 0.00D+00
 Harris functional with IExCor=  205 and IRadAn=       5 diagonalized for initial guess.
 HarFok:  IExCor=  205 AccDes= 0.00D+00 IRadAn=         5 IDoV= 1 UseB2=F ITyADJ=14
 ICtDFT=  3500011 ScaDFX=  1.000000  1.000000  1.000000  1.000000
 FoFCou: FMM=F IPFlag=           0 FMFlag=      100000 FMFlg1=           0
         NFxFlg=           0 DoJE=T BraDBF=F KetDBF=T FulRan=T
         wScrn=  0.000000 ICntrl=       500 IOpCl=  0 I1Cent=   200000004 NGrid=           0
         NMat0=    1 NMatS0=      1 NMatT0=    0 NMatD0=    1 NMtDS0=    0 NMtDT0=    0
 Symmetry not used in FoFCou.
 Keep R1 ints in memory in canonical form, NReq=1713163.
 Requested convergence on RMS density matrix=1.00D-08 within 128 cycles.
 Requested convergence on MAX density matrix=1.00D-06.
 Requested convergence on             energy=1.00D-06.
 No special actions if energy rises.
 SCF Done:  E(RHF) =  -3056.80766222     A.U. after   10 cycles
            NFock= 10  Conv=0.18D-08     -V/T= 1.9973
 Range of M.O.s used for correlation:     1    51
 NBasis=    51 NAE=    31 NBE=    31 NFC=     0 NFV=     0
 NROrb=     51 NOA=    31 NOB=    31 NVA=    20 NVB=    20

 **** Warning!!: The largest alpha MO coefficient is  0.10777540D+02

 Symmetrizing basis deriv contribution to polar:
 IMax=3 JMax=2 DiffMx= 0.00D+00
 Calling FoFJK, ICntrl=      2127 FMM=F ISym2X=0 I1Cent= 0 IOpClX= 0 NMat=1 NMatS=1 NMatT=0.
 -------------------------------------------------------------------
 Center     Atomic                   Forces (Hartrees/Bohr)
 Number     Number              X              Y              Z
 -------------------------------------------------------------------
      1        6          -0.002045164    0.006089286   -0.013053038
      2        1           0.000726060   -0.000521824   -0.000591231
      3        1           0.000213082    0.001028816    0.000212520
      4        1          -0.001023223   -0.000241847   -0.000186469
      5       17           0.000832371   -0.002483481    0.005322494
      6       35           0.001296874   -0.003870950    0.008295724
 -------------------------------------------------------------------
 Cartesian Forces:  Max     0.013053038 RMS     0.004318930
 IRC-IRC-IRC-IRC-IRC-IRC-IRC-IRC-IRC-IRC-IRC-IRC-IRC-IRC-IRC-IRC-IRC-IRC
 Pt  3 Step number   1 out of a maximum of  20
 Modified Bulirsch-Stoer Extrapolation Cycles:
    EPS =    0.000010000000000
      PEZero:  N= 2 I= 1 D=  1.81D-03 Err=  8.50D-06
 Maximum DWI energy   std dev =  0.000003174 at pt    23
 Maximum DWI gradient std dev =  0.124680027 at pt    37
 Point Number:   3          Path Number:   1
   CHANGE IN THE REACTION COORDINATE =    0.34782
   NET REACTION COORDINATE UP TO THIS POINT =    1.04337
  # OF POINTS ALONG THE PATH =   3
  # OF STEPS =   1

 Calculating another point on the path.
 IRC-IRC-IRC-IRC-IRC-IRC-IRC-IRC-IRC-IRC-IRC-IRC-IRC-IRC-IRC-IRC-IRC-IRC
                          Input orientation:                          
 ---------------------------------------------------------------------
 Center     Atomic      Atomic             Coordinates (Angstroms)
 Number     Number       Type             X           Y           Z
 ---------------------------------------------------------------------
      1          6           0        0.108536   -0.324231    0.694793
      2          1           0       -0.635349    0.242288    1.200151
      3          1           0       -0.119450   -1.317170    0.391826
      4          1           0        1.127483   -0.038522    0.793914
      5         17           0        0.463558   -1.385976    2.969750
      6         35           0       -0.226708    0.677773   -1.452284
 ---------------------------------------------------------------------
                    Distance matrix (angstroms):
                    1          2          3          4          5
     1  C    0.000000
     2  H    1.062871   0.000000
     3  H    1.062871   1.830696   0.000000
     4  H    1.062877   1.830699   1.830699   0.000000
     5  Cl   2.535502   2.643921   2.643922   2.643991   0.000000
     6  Br   2.392978   2.718832   2.718832   2.718882   4.928480
                    6
     6  Br   0.000000
 Symmetry turned off by external request.
 Stoichiometry    CH3BrCl(1-)
 Framework group  C1[X(CH3BrCl)]
 Deg. of freedom    12
 Full point group                 C1      NOp   1
 Rotational constants (GHZ):         149.6230745           0.8407427           0.8407427
 Basis read from rwf:  (6D, 7F)
    51 basis functions,   108 primitive gaussians,    51 cartesian basis functions
    31 alpha electrons       31 beta electrons
       nuclear repulsion energy       172.0857691789 Hartrees.
 NAtoms=    6 NActive=    6 NUniq=    6 SFac= 1.00D+00 NAtFMM=   60 NAOKFM=F Big=F
 Integral buffers will be    131072 words long.
 Raffenetti 1 integral format.
 Two-electron integral symmetry is turned off.
 One-electron integrals computed using PRISM.
 NBasis=    51 RedAO= T EigKep=  4.89D-03  NBF=    51
 NBsUse=    51 1.00D-06 EigRej= -1.00D+00 NBFU=    51
 Initial guess from the checkpoint file:  "example1_IRC.chk"
 B after Tr=    -0.000191    0.000570   -0.001221
         Rot=    1.000000   -0.000000    0.000000    0.000000 Ang=   0.00 deg.
 ExpMin= 1.65D-01 ExpMax= 6.10D+03 ExpMxC= 6.10D+03 IAcc=3 IRadAn=         5 AccDes= 0.00D+00
 Harris functional with IExCor=  205 and IRadAn=       5 diagonalized for initial guess.
 HarFok:  IExCor=  205 AccDes= 0.00D+00 IRadAn=         5 IDoV= 1 UseB2=F ITyADJ=14
 ICtDFT=  3500011 ScaDFX=  1.000000  1.000000  1.000000  1.000000
 FoFCou: FMM=F IPFlag=           0 FMFlag=      100000 FMFlg1=           0
         NFxFlg=           0 DoJE=T BraDBF=F KetDBF=T FulRan=T
         wScrn=  0.000000 ICntrl=       500 IOpCl=  0 I1Cent=   200000004 NGrid=           0
         NMat0=    1 NMatS0=      1 NMatT0=    0 NMatD0=    1 NMtDS0=    0 NMtDT0=    0
 Symmetry not used in FoFCou.
 Keep R1 ints in memory in canonical form, NReq=1713178.
 Requested convergence on RMS density matrix=1.00D-08 within 128 cycles.
 Requested convergence on MAX density matrix=1.00D-06.
 Requested convergence on             energy=1.00D-06.
 No special actions if energy rises.
 SCF Done:  E(RHF) =  -3056.80943020     A.U. after   10 cycles
            NFock= 10  Conv=0.29D-08     -V/T= 1.9973
 Range of M.O.s used for correlation:     1    51
 NBasis=    51 NAE=    31 NBE=    31 NFC=     0 NFV=     0
 NROrb=     51 NOA=    31 NOB=    31 NVA=    20 NVB=    20

 **** Warning!!: The largest alpha MO coefficient is  0.10779989D+02

 Symmetrizing basis deriv contribution to polar:
 IMax=3 JMax=2 DiffMx= 0.00D+00
 Calling FoFJK, ICntrl=      2127 FMM=F ISym2X=0 I1Cent= 0 IOpClX= 0 NMat=1 NMatS=1 NMatT=0.
 -------------------------------------------------------------------
 Center     Atomic                   Forces (Hartrees/Bohr)
 Number     Number              X              Y              Z
 -------------------------------------------------------------------
      1        6          -0.002520191    0.007536144   -0.016147537
      2        1           0.000675618   -0.000419276   -0.000763237
      3        1           0.000177079    0.001087700    0.000017887
      4        1          -0.001030677   -0.000148229   -0.000371842
      5       17           0.001037544   -0.003098693    0.006640338
      6       35           0.001660627   -0.004957647    0.010624392
 -------------------------------------------------------------------
 Cartesian Forces:  Max     0.016147537 RMS     0.005387877
 IRC-IRC-IRC-IRC-IRC-IRC-IRC-IRC-IRC-IRC-IRC-IRC-IRC-IRC-IRC-IRC-IRC-IRC
 Pt  4 Step number   1 out of a maximum of  20
 Modified Bulirsch-Stoer Extrapolation Cycles:
    EPS =    0.000010000000000
      PEZero:  N= 2 I= 1 D=  1.81D-03 Err=  1.20D-05
      PEZero:  N= 3 I= 2 D=  1.81D-03 Err=  8.03D-06
      PEZero:  N= 3 I= 1 D=  3.62D-03 Err=  7.64D-09
 Maximum DWI energy   std dev =  0.000004463 at pt    37
 Maximum DWI gradient std dev =  0.088645599 at pt    28
 Point Number:   4          Path Number:   1
   CHANGE IN THE REACTION COORDINATE =    0.34782
   NET REACTION COORDINATE UP TO THIS POINT =    1.39118
  # OF POINTS ALONG THE PATH =   4
  # OF STEPS =   1

 Calculating another point on the path.
 IRC-IRC-IRC-IRC-IRC-IRC-IRC-IRC-IRC-IRC-IRC-IRC-IRC-IRC-IRC-IRC-IRC-IRC
                          Input orientation:                          
 ---------------------------------------------------------------------
 Center     Atomic      Atomic             Coordinates (Angstroms)
 Number     Number       Type             X           Y           Z
 ---------------------------------------------------------------------
      1          6           0        0.101543   -0.303347    0.650039
      2          1           0       -0.634186    0.245155    1.187383
      3          1           0       -0.120273   -1.308301    0.382169
      4          1           0        1.121856   -0.034561    0.782680
      5         17           0        0.464504   -1.388802    2.975806
      6         35           0       -0.226014    0.675701   -1.447843
 ---------------------------------------------------------------------
                    Distance matrix (angstroms):
                    1          2          3          4          5
     1  C    0.000000
     2  H    1.063433   0.000000
     3  H    1.063433   1.823651   0.000000
     4  H    1.063428   1.823653   1.823653   0.000000
     5  Cl   2.592131   2.659961   2.659962   2.660053   0.000000
     6  Br   2.338149   2.701183   2.701183   2.701196   4.930280
                    6
     6  Br   0.000000
 Symmetry turned off by external request.
 This structure is nearly, but not quite of a higher symmetry.
 Consider Symm=Loose if the higher symmetry is desired.
 Stoichiometry    CH3BrCl(1-)
 Framework group  C1[X(CH3BrCl)]
 Deg. of freedom    12
 Full point group                 C1      NOp   1
 Rotational constants (GHZ):         150.7815068           0.8416882           0.8416882
 Basis read from rwf:  (6D, 7F)
    51 basis functions,   108 primitive gaussians,    51 cartesian basis functions
    31 alpha electrons       31 beta electrons
       nuclear repulsion energy       172.7570420898 Hartrees.
 NAtoms=    6 NActive=    6 NUniq=    6 SFac= 1.00D+00 NAtFMM=   60 NAOKFM=F Big=F
 Integral buffers will be    131072 words long.
 Raffenetti 1 integral format.
 Two-electron integral symmetry is turned off.
 One-electron integrals computed using PRISM.
 NBasis=    51 RedAO= T EigKep=  4.88D-03  NBF=    51
 NBsUse=    51 1.00D-06 EigRej= -1.00D+00 NBFU=    51
 Initial guess from the checkpoint file:  "example1_IRC.chk"
 B after Tr=    -0.000212    0.000633   -0.001356
         Rot=    1.000000    0.000000   -0.000000   -0.000000 Ang=   0.00 deg.
 ExpMin= 1.65D-01 ExpMax= 6.10D+03 ExpMxC= 6.10D+03 IAcc=3 IRadAn=         5 AccDes= 0.00D+00
 Harris functional with IExCor=  205 and IRadAn=       5 diagonalized for initial guess.
 HarFok:  IExCor=  205 AccDes= 0.00D+00 IRadAn=         5 IDoV= 1 UseB2=F ITyADJ=14
 ICtDFT=  3500011 ScaDFX=  1.000000  1.000000  1.000000  1.000000
 FoFCou: FMM=F IPFlag=           0 FMFlag=      100000 FMFlg1=           0
         NFxFlg=           0 DoJE=T BraDBF=F KetDBF=T FulRan=T
         wScrn=  0.000000 ICntrl=       500 IOpCl=  0 I1Cent=   200000004 NGrid=           0
         NMat0=    1 NMatS0=      1 NMatT0=    0 NMatD0=    1 NMtDS0=    0 NMtDT0=    0
 Symmetry not used in FoFCou.
 Keep R1 ints in memory in canonical form, NReq=1713234.
 Requested convergence on RMS density matrix=1.00D-08 within 128 cycles.
 Requested convergence on MAX density matrix=1.00D-06.
 Requested convergence on             energy=1.00D-06.
 No special actions if energy rises.
 SCF Done:  E(RHF) =  -3056.81151215     A.U. after   10 cycles
            NFock= 10  Conv=0.32D-08     -V/T= 1.9973
 Range of M.O.s used for correlation:     1    51
 NBasis=    51 NAE=    31 NBE=    31 NFC=     0 NFV=     0
 NROrb=     51 NOA=    31 NOB=    31 NVA=    20 NVB=    20

 **** Warning!!: The largest alpha MO coefficient is  0.10782143D+02

 Symmetrizing basis deriv contribution to polar:
 IMax=3 JMax=2 DiffMx= 0.00D+00
 Calling FoFJK, ICntrl=      2127 FMM=F ISym2X=0 I1Cent= 0 IOpClX= 0 NMat=1 NMatS=1 NMatT=0.
 -------------------------------------------------------------------
 Center     Atomic                   Forces (Hartrees/Bohr)
 Number     Number              X              Y              Z
 -------------------------------------------------------------------
      1        6          -0.002823259    0.008414023   -0.018034647
      2        1           0.000450975   -0.000197956   -0.000767199
      3        1           0.000093387    0.000882973   -0.000206918
      4        1          -0.000766403   -0.000002627   -0.000484072
      5       17           0.001161316   -0.003468747    0.007433260
      6       35           0.001883984   -0.005627666    0.012059576
 -------------------------------------------------------------------
 Cartesian Forces:  Max     0.018034647 RMS     0.006035942
 IRC-IRC-IRC-IRC-IRC-IRC-IRC-IRC-IRC-IRC-IRC-IRC-IRC-IRC-IRC-IRC-IRC-IRC
 Pt  5 Step number   1 out of a maximum of  20
 Modified Bulirsch-Stoer Extrapolation Cycles:
    EPS =    0.000010000000000
      PEZero:  N= 2 I= 1 D=  1.81D-03 Err=  8.67D-06
 Maximum DWI energy   std dev =  0.000007942 at pt    36
 Maximum DWI gradient std dev =  0.050632898 at pt    38
 Point Number:   5          Path Number:   1
   CHANGE IN THE REACTION COORDINATE =    0.34783
   NET REACTION COORDINATE UP TO THIS POINT =    1.73901
  # OF POINTS ALONG THE PATH =   5
  # OF STEPS =   1

 Calculating another point on the path.
 IRC-IRC-IRC-IRC-IRC-IRC-IRC-IRC-IRC-IRC-IRC-IRC-IRC-IRC-IRC-IRC-IRC-IRC
                          Input orientation:                          
 ---------------------------------------------------------------------
 Center     Atomic      Atomic             Coordinates (Angstroms)
 Number     Number       Type             X           Y           Z
 ---------------------------------------------------------------------
      1          6           0        0.094583   -0.282554    0.605482
      2          1           0       -0.632950    0.248608    1.172584
      3          1           0       -0.121259   -1.298133    0.370851
      4          1           0        1.115508   -0.029913    0.769661
      5         17           0        0.465464   -1.391670    2.981950
      6         35           0       -0.225314    0.673610   -1.443364
 ---------------------------------------------------------------------
                    Distance matrix (angstroms):
                    1          2          3          4          5
     1  C    0.000000
     2  H    1.064444   0.000000
     3  H    1.064444   1.815768   0.000000
     4  H    1.064457   1.815771   1.815771   0.000000
     5  Cl   2.648639   2.677840   2.677840   2.677902   0.000000
     6  Br   2.283497   2.681414   2.681414   2.681461   4.932136
                    6
     6  Br   0.000000
 Symmetry turned off by external request.
 Stoichiometry    CH3BrCl(1-)
 Framework group  C1[X(CH3BrCl)]
 Deg. of freedom    12
 Full point group                 C1      NOp   1
 Rotational constants (GHZ):         152.0934100           0.8425357           0.8425357
 Basis read from rwf:  (6D, 7F)
    51 basis functions,   108 primitive gaussians,    51 cartesian basis functions
    31 alpha electrons       31 beta electrons
       nuclear repulsion energy       173.5053497576 Hartrees.
 NAtoms=    6 NActive=    6 NUniq=    6 SFac= 1.00D+00 NAtFMM=   60 NAOKFM=F Big=F
 Integral buffers will be    131072 words long.
 Raffenetti 1 integral format.
 Two-electron integral symmetry is turned off.
 One-electron integrals computed using PRISM.
 NBasis=    51 RedAO= T EigKep=  4.88D-03  NBF=    51
 NBsUse=    51 1.00D-06 EigRej= -1.00D+00 NBFU=    51
 Initial guess from the checkpoint file:  "example1_IRC.chk"
 B after Tr=    -0.000219    0.000655   -0.001403
         Rot=    1.000000   -0.000000    0.000000    0.000000 Ang=  -0.00 deg.
 ExpMin= 1.65D-01 ExpMax= 6.10D+03 ExpMxC= 6.10D+03 IAcc=3 IRadAn=         5 AccDes= 0.00D+00
 Harris functional with IExCor=  205 and IRadAn=       5 diagonalized for initial guess.
 HarFok:  IExCor=  205 AccDes= 0.00D+00 IRadAn=         5 IDoV= 1 UseB2=F ITyADJ=14
 ICtDFT=  3500011 ScaDFX=  1.000000  1.000000  1.000000  1.000000
 FoFCou: FMM=F IPFlag=           0 FMFlag=      100000 FMFlg1=           0
         NFxFlg=           0 DoJE=T BraDBF=F KetDBF=T FulRan=T
         wScrn=  0.000000 ICntrl=       500 IOpCl=  0 I1Cent=   200000004 NGrid=           0
         NMat0=    1 NMatS0=      1 NMatT0=    0 NMatD0=    1 NMtDS0=    0 NMtDT0=    0
 Symmetry not used in FoFCou.
 Keep R1 ints in memory in canonical form, NReq=1713249.
 Requested convergence on RMS density matrix=1.00D-08 within 128 cycles.
 Requested convergence on MAX density matrix=1.00D-06.
 Requested convergence on             energy=1.00D-06.
 No special actions if energy rises.
 SCF Done:  E(RHF) =  -3056.81373432     A.U. after   10 cycles
            NFock= 10  Conv=0.28D-08     -V/T= 1.9973
 Range of M.O.s used for correlation:     1    51
 NBasis=    51 NAE=    31 NBE=    31 NFC=     0 NFV=     0
 NROrb=     51 NOA=    31 NOB=    31 NVA=    20 NVB=    20

 **** Warning!!: The largest alpha MO coefficient is  0.10783980D+02

 Symmetrizing basis deriv contribution to polar:
 IMax=3 JMax=2 DiffMx= 0.00D+00
 Calling FoFJK, ICntrl=      2127 FMM=F ISym2X=0 I1Cent= 0 IOpClX= 0 NMat=1 NMatS=1 NMatT=0.
 -------------------------------------------------------------------
 Center     Atomic                   Forces (Hartrees/Bohr)
 Number     Number              X              Y              Z
 -------------------------------------------------------------------
      1        6          -0.002837631    0.008504890   -0.018219070
      2        1           0.000376293   -0.000078566   -0.000920389
      3        1           0.000049762    0.000908451   -0.000408774
      4        1          -0.000746596    0.000098417   -0.000666376
      5       17           0.001218646   -0.003641709    0.007803536
      6       35           0.001939526   -0.005791483    0.012411072
 -------------------------------------------------------------------
 Cartesian Forces:  Max     0.018219070 RMS     0.006156752
 IRC-IRC-IRC-IRC-IRC-IRC-IRC-IRC-IRC-IRC-IRC-IRC-IRC-IRC-IRC-IRC-IRC-IRC
 Pt  6 Step number   1 out of a maximum of  20
 Modified Bulirsch-Stoer Extrapolation Cycles:
    EPS =    0.000010000000000
      PEZero:  N= 2 I= 1 D=  1.81D-03 Err=  1.76D-05
      PEZero:  N= 3 I= 2 D=  1.81D-03 Err=  1.16D-05
      PEZero:  N= 3 I= 1 D=  3.62D-03 Err=  1.02D-07
 Maximum DWI energy   std dev =  0.000009733 at pt    36
 Maximum DWI gradient std dev =  0.045182331 at pt    38
 Point Number:   6          Path Number:   1
   CHANGE IN THE REACTION COORDINATE =    0.34781
   NET REACTION COORDINATE UP TO THIS POINT =    2.08683
  # OF POINTS ALONG THE PATH =   6
  # OF STEPS =   1

 Calculating another point on the path.
 IRC-IRC-IRC-IRC-IRC-IRC-IRC-IRC-IRC-IRC-IRC-IRC-IRC-IRC-IRC-IRC-IRC-IRC
                          Input orientation:                          
 ---------------------------------------------------------------------
 Center     Atomic      Atomic             Coordinates (Angstroms)
 Number     Number       Type             X           Y           Z
 ---------------------------------------------------------------------
      1          6           0        0.087681   -0.261939    0.561305
      2          1           0       -0.631736    0.253346    1.153683
      3          1           0       -0.122666   -1.285470    0.356058
      4          1           0        1.107750   -0.023715    0.752754
      5         17           0        0.466448   -1.394609    2.988249
      6         35           0       -0.224616    0.671527   -1.438899
 ---------------------------------------------------------------------
                    Distance matrix (angstroms):
                    1          2          3          4          5
     1  C    0.000000
     2  H    1.064889   0.000000
     3  H    1.064889   1.806464   0.000000
     4  H    1.064868   1.806465   1.806465   0.000000
     5  Cl   2.704896   2.699518   2.699518   2.699640   0.000000
     6  Br   2.229283   2.657461   2.657461   2.657424   4.934179
                    6
     6  Br   0.000000
 Symmetry turned off by external request.
 This structure is nearly, but not quite of a higher symmetry.
 Consider Symm=Loose if the higher symmetry is desired.
 Stoichiometry    CH3BrCl(1-)
 Framework group  C1[X(CH3BrCl)]
 Deg. of freedom    12
 Full point group                 C1      NOp   1
 Rotational constants (GHZ):         153.6643077           0.8432529           0.8432529
 Basis read from rwf:  (6D, 7F)
    51 basis functions,   108 primitive gaussians,    51 cartesian basis functions
    31 alpha electrons       31 beta electrons
       nuclear repulsion energy       174.3454048555 Hartrees.
 NAtoms=    6 NActive=    6 NUniq=    6 SFac= 1.00D+00 NAtFMM=   60 NAOKFM=F Big=F
 Integral buffers will be    131072 words long.
 Raffenetti 1 integral format.
 Two-electron integral symmetry is turned off.
 One-electron integrals computed using PRISM.
 NBasis=    51 RedAO= T EigKep=  4.88D-03  NBF=    51
 NBsUse=    51 1.00D-06 EigRej= -1.00D+00 NBFU=    51
 Initial guess from the checkpoint file:  "example1_IRC.chk"
 B after Tr=    -0.000254    0.000755   -0.001619
         Rot=    1.000000    0.000000   -0.000000   -0.000000 Ang=   0.00 deg.
 ExpMin= 1.65D-01 ExpMax= 6.10D+03 ExpMxC= 6.10D+03 IAcc=3 IRadAn=         5 AccDes= 0.00D+00
 Harris functional with IExCor=  205 and IRadAn=       5 diagonalized for initial guess.
 HarFok:  IExCor=  205 AccDes= 0.00D+00 IRadAn=         5 IDoV= 1 UseB2=F ITyADJ=14
 ICtDFT=  3500011 ScaDFX=  1.000000  1.000000  1.000000  1.000000
 FoFCou: FMM=F IPFlag=           0 FMFlag=      100000 FMFlg1=           0
         NFxFlg=           0 DoJE=T BraDBF=F KetDBF=T FulRan=T
         wScrn=  0.000000 ICntrl=       500 IOpCl=  0 I1Cent=   200000004 NGrid=           0
         NMat0=    1 NMatS0=      1 NMatT0=    0 NMatD0=    1 NMtDS0=    0 NMtDT0=    0
 Symmetry not used in FoFCou.
 Keep R1 ints in memory in canonical form, NReq=1713279.
 Requested convergence on RMS density matrix=1.00D-08 within 128 cycles.
 Requested convergence on MAX density matrix=1.00D-06.
 Requested convergence on             energy=1.00D-06.
 No special actions if energy rises.
 SCF Done:  E(RHF) =  -3056.81590662     A.U. after    9 cycles
            NFock=  9  Conv=0.79D-08     -V/T= 1.9973
 Range of M.O.s used for correlation:     1    51
 NBasis=    51 NAE=    31 NBE=    31 NFC=     0 NFV=     0
 NROrb=     51 NOA=    31 NOB=    31 NVA=    20 NVB=    20

 **** Warning!!: The largest alpha MO coefficient is  0.10785627D+02

 Symmetrizing basis deriv contribution to polar:
 IMax=3 JMax=2 DiffMx= 0.00D+00
 Calling FoFJK, ICntrl=      2127 FMM=F ISym2X=0 I1Cent= 0 IOpClX= 0 NMat=1 NMatS=1 NMatT=0.
 -------------------------------------------------------------------
 Center     Atomic                   Forces (Hartrees/Bohr)
 Number     Number              X              Y              Z
 -------------------------------------------------------------------
      1        6          -0.002685328    0.007965764   -0.017081860
      2        1           0.000024248    0.000182381   -0.000648999
      3        1          -0.000053545    0.000417579   -0.000527105
      4        1          -0.000227064    0.000226195   -0.000581300
      5       17           0.001201720   -0.003590299    0.007693553
      6       35           0.001739968   -0.005201620    0.011145711
 -------------------------------------------------------------------
 Cartesian Forces:  Max     0.017081860 RMS     0.005733146
 IRC-IRC-IRC-IRC-IRC-IRC-IRC-IRC-IRC-IRC-IRC-IRC-IRC-IRC-IRC-IRC-IRC-IRC
 Reaction path inflection point has been passed.
   Previous lowest Hessian eigenvalue=   -0.0004138880
   Current lowest Hessian eigenvalue =    0.0010361068
 Pt  7 Step number   1 out of a maximum of  20
 Modified Bulirsch-Stoer Extrapolation Cycles:
    EPS =    0.000010000000000
      PEZero:  N= 2 I= 1 D=  1.81D-03 Err=  3.95D-05
      PEZero:  N= 3 I= 2 D=  1.81D-03 Err=  2.64D-05
      PEZero:  N= 3 I= 1 D=  3.62D-03 Err=  6.36D-08
 Maximum DWI energy   std dev =  0.000011977 at pt    47
 Maximum DWI gradient std dev =  0.010655723 at pt    29
 Point Number:   7          Path Number:   1
   CHANGE IN THE REACTION COORDINATE =    0.34785
   NET REACTION COORDINATE UP TO THIS POINT =    2.43468
  # OF POINTS ALONG THE PATH =   7
  # OF STEPS =   1

 Calculating another point on the path.
 IRC-IRC-IRC-IRC-IRC-IRC-IRC-IRC-IRC-IRC-IRC-IRC-IRC-IRC-IRC-IRC-IRC-IRC
                          Input orientation:                          
 ---------------------------------------------------------------------
 Center     Atomic      Atomic             Coordinates (Angstroms)
 Number     Number       Type             X           Y           Z
 ---------------------------------------------------------------------
      1          6           0        0.080808   -0.241386    0.517268
      2          1           0       -0.630891    0.258345    1.135275
      3          1           0       -0.124137   -1.273473    0.341277
      4          1           0        1.100711   -0.017523    0.736315
      5         17           0        0.467553   -1.397917    2.995335
      6         35           0       -0.223963    0.669573   -1.434713
 ---------------------------------------------------------------------
                    Distance matrix (angstroms):
                    1          2          3          4          5
     1  C    0.000000
     2  H    1.066855   0.000000
     3  H    1.066855   1.798249   0.000000
     4  H    1.066911   1.798255   1.798255   0.000000
     5  Cl   2.761874   2.722059   2.722060   2.722049   0.000000
     6  Br   2.175538   2.634300   2.634300   2.634431   4.937412
                    6
     6  Br   0.000000
 Symmetry turned off by external request.
 Stoichiometry    CH3BrCl(1-)
 Framework group  C1[X(CH3BrCl)]
 Deg. of freedom    12
 Full point group                 C1      NOp   1
 Rotational constants (GHZ):         155.0709817           0.8434679           0.8434679
 Basis read from rwf:  (6D, 7F)
    51 basis functions,   108 primitive gaussians,    51 cartesian basis functions
    31 alpha electrons       31 beta electrons
       nuclear repulsion energy       175.2114904267 Hartrees.
 NAtoms=    6 NActive=    6 NUniq=    6 SFac= 1.00D+00 NAtFMM=   60 NAOKFM=F Big=F
 Integral buffers will be    131072 words long.
 Raffenetti 1 integral format.
 Two-electron integral symmetry is turned off.
 One-electron integrals computed using PRISM.
 NBasis=    51 RedAO= T EigKep=  4.88D-03  NBF=    51
 NBsUse=    51 1.00D-06 EigRej= -1.00D+00 NBFU=    51
 Initial guess from the checkpoint file:  "example1_IRC.chk"
 B after Tr=    -0.000225    0.000678   -0.001453
         Rot=    1.000000   -0.000000    0.000000    0.000000 Ang=  -0.00 deg.
 ExpMin= 1.65D-01 ExpMax= 6.10D+03 ExpMxC= 6.10D+03 IAcc=3 IRadAn=         5 AccDes= 0.00D+00
 Harris functional with IExCor=  205 and IRadAn=       5 diagonalized for initial guess.
 HarFok:  IExCor=  205 AccDes= 0.00D+00 IRadAn=         5 IDoV= 1 UseB2=F ITyADJ=14
 ICtDFT=  3500011 ScaDFX=  1.000000  1.000000  1.000000  1.000000
 FoFCou: FMM=F IPFlag=           0 FMFlag=      100000 FMFlg1=           0
         NFxFlg=           0 DoJE=T BraDBF=F KetDBF=T FulRan=T
         wScrn=  0.000000 ICntrl=       500 IOpCl=  0 I1Cent=   200000004 NGrid=           0
         NMat0=    1 NMatS0=      1 NMatT0=    0 NMatD0=    1 NMtDS0=    0 NMtDT0=    0
 Symmetry not used in FoFCou.
 Keep R1 ints in memory in canonical form, NReq=1713293.
 Requested convergence on RMS density matrix=1.00D-08 within 128 cycles.
 Requested convergence on MAX density matrix=1.00D-06.
 Requested convergence on             energy=1.00D-06.
 No special actions if energy rises.
 SCF Done:  E(RHF) =  -3056.81781215     A.U. after    9 cycles
            NFock=  9  Conv=0.70D-08     -V/T= 1.9973
 Range of M.O.s used for correlation:     1    51
 NBasis=    51 NAE=    31 NBE=    31 NFC=     0 NFV=     0
 NROrb=     51 NOA=    31 NOB=    31 NVA=    20 NVB=    20

 **** Warning!!: The largest alpha MO coefficient is  0.10786860D+02

 Symmetrizing basis deriv contribution to polar:
 IMax=3 JMax=2 DiffMx= 0.00D+00
 Calling FoFJK, ICntrl=      2127 FMM=F ISym2X=0 I1Cent= 0 IOpClX= 0 NMat=1 NMatS=1 NMatT=0.
 -------------------------------------------------------------------
 Center     Atomic                   Forces (Hartrees/Bohr)
 Number     Number              X              Y              Z
 -------------------------------------------------------------------
      1        6          -0.002017065    0.006157848   -0.013167216
      2        1           0.000357085    0.000018710   -0.001182453
      3        1           0.000015087    0.001052404   -0.000646608
      4        1          -0.000845402    0.000202274   -0.000929812
      5       17           0.001153696   -0.003449239    0.007390760
      6       35           0.001336598   -0.003981998    0.008535330
 -------------------------------------------------------------------
 Cartesian Forces:  Max     0.013167216 RMS     0.004584888
 IRC-IRC-IRC-IRC-IRC-IRC-IRC-IRC-IRC-IRC-IRC-IRC-IRC-IRC-IRC-IRC-IRC-IRC
 Pt  8 Step number   1 out of a maximum of  20
 Modified Bulirsch-Stoer Extrapolation Cycles:
    EPS =    0.000010000000000
      PEZero:  N= 2 I= 1 D=  1.81D-03 Err=  7.65D-05
      PEZero:  N= 3 I= 2 D=  1.81D-03 Err=  5.11D-05
      PEZero:  N= 3 I= 1 D=  3.62D-03 Err=  2.49D-07
 Maximum DWI energy   std dev =  0.000010960 at pt    35
 Maximum DWI gradient std dev =  0.074441357 at pt    59
 Point Number:   8          Path Number:   1
   CHANGE IN THE REACTION COORDINATE =    0.34758
   NET REACTION COORDINATE UP TO THIS POINT =    2.78225
  # OF POINTS ALONG THE PATH =   8
  # OF STEPS =   1

 Calculating another point on the path.
 IRC-IRC-IRC-IRC-IRC-IRC-IRC-IRC-IRC-IRC-IRC-IRC-IRC-IRC-IRC-IRC-IRC-IRC
                          Input orientation:                          
 ---------------------------------------------------------------------
 Center     Atomic      Atomic             Coordinates (Angstroms)
 Number     Number       Type             X           Y           Z
 ---------------------------------------------------------------------
      1          6           0        0.074128   -0.221495    0.474629
      2          1           0       -0.630291    0.267324    1.104517
      3          1           0       -0.126975   -1.254101    0.315907
      4          1           0        1.089489   -0.006487    0.707861
      5         17           0        0.468777   -1.401548    3.003121
      6         35           0       -0.223403    0.667907   -1.431140
 ---------------------------------------------------------------------
                    Distance matrix (angstroms):
                    1          2          3          4          5
     1  C    0.000000
     2  H    1.063912   0.000000
     3  H    1.063912   1.786048   0.000000
     4  H    1.063760   1.786044   1.786044   0.000000
     5  Cl   2.818074   2.756407   2.756406   2.756755   0.000000
     6  Br   2.124033   2.599150   2.599151   2.598810   4.942107
                    6
     6  Br   0.000000
 Symmetry turned off by external request.
 Stoichiometry    CH3BrCl(1-)
 Framework group  C1[X(CH3BrCl)]
 Deg. of freedom    12
 Full point group                 C1      NOp   1
 Rotational constants (GHZ):         157.1980268           0.8431598           0.8431598
 Basis read from rwf:  (6D, 7F)
    51 basis functions,   108 primitive gaussians,    51 cartesian basis functions
    31 alpha electrons       31 beta electrons
       nuclear repulsion energy       176.1936761149 Hartrees.
 NAtoms=    6 NActive=    6 NUniq=    6 SFac= 1.00D+00 NAtFMM=   60 NAOKFM=F Big=F
 Integral buffers will be    131072 words long.
 Raffenetti 1 integral format.
 Two-electron integral symmetry is turned off.
 One-electron integrals computed using PRISM.
 NBasis=    51 RedAO= T EigKep=  4.87D-03  NBF=    51
 NBsUse=    51 1.00D-06 EigRej= -1.00D+00 NBFU=    51
 Initial guess from the checkpoint file:  "example1_IRC.chk"
 B after Tr=    -0.000406    0.001198   -0.002571
         Rot=    1.000000    0.000000   -0.000001   -0.000000 Ang=   0.00 deg.
 ExpMin= 1.65D-01 ExpMax= 6.10D+03 ExpMxC= 6.10D+03 IAcc=3 IRadAn=         5 AccDes= 0.00D+00
 Harris functional with IExCor=  205 and IRadAn=       5 diagonalized for initial guess.
 HarFok:  IExCor=  205 AccDes= 0.00D+00 IRadAn=         5 IDoV= 1 UseB2=F ITyADJ=14
 ICtDFT=  3500011 ScaDFX=  1.000000  1.000000  1.000000  1.000000
 FoFCou: FMM=F IPFlag=           0 FMFlag=      100000 FMFlg1=           0
         NFxFlg=           0 DoJE=T BraDBF=F KetDBF=T FulRan=T
         wScrn=  0.000000 ICntrl=       500 IOpCl=  0 I1Cent=   200000004 NGrid=           0
         NMat0=    1 NMatS0=      1 NMatT0=    0 NMatD0=    1 NMtDS0=    0 NMtDT0=    0
 Symmetry not used in FoFCou.
 Keep R1 ints in memory in canonical form, NReq=1713276.
 Requested convergence on RMS density matrix=1.00D-08 within 128 cycles.
 Requested convergence on MAX density matrix=1.00D-06.
 Requested convergence on             energy=1.00D-06.
 No special actions if energy rises.
 SCF Done:  E(RHF) =  -3056.81922280     A.U. after    9 cycles
            NFock=  9  Conv=0.99D-08     -V/T= 1.9973
 Range of M.O.s used for correlation:     1    51
 NBasis=    51 NAE=    31 NBE=    31 NFC=     0 NFV=     0
 NROrb=     51 NOA=    31 NOB=    31 NVA=    20 NVB=    20

 **** Warning!!: The largest alpha MO coefficient is  0.10788397D+02

 Symmetrizing basis deriv contribution to polar:
 IMax=3 JMax=2 DiffMx= 0.00D+00
 Calling FoFJK, ICntrl=      2127 FMM=F ISym2X=0 I1Cent= 0 IOpClX= 0 NMat=1 NMatS=1 NMatT=0.
 -------------------------------------------------------------------
 Center     Atomic                   Forces (Hartrees/Bohr)
 Number     Number              X              Y              Z
 -------------------------------------------------------------------
      1        6          -0.001843836    0.005145575   -0.011104308
      2        1          -0.001335850    0.000893638    0.001344115
      3        1          -0.000360135   -0.002055477   -0.000184648
      4        1           0.002093335    0.000368572    0.000625006
      5       17           0.001006037   -0.003004295    0.006438117
      6       35           0.000440450   -0.001348012    0.002881719
 -------------------------------------------------------------------
 Cartesian Forces:  Max     0.011104308 RMS     0.003564267
 IRC-IRC-IRC-IRC-IRC-IRC-IRC-IRC-IRC-IRC-IRC-IRC-IRC-IRC-IRC-IRC-IRC-IRC
 Pt  9 Step number   1 out of a maximum of  20
 Modified Bulirsch-Stoer Extrapolation Cycles:
    EPS =    0.000010000000000
      PEZero:  N= 2 I= 1 D=  1.81D-03 Err=  3.30D-04
      PEZero:  N= 3 I= 2 D=  1.81D-03 Err=  2.20D-04
      PEZero:  N= 3 I= 1 D=  3.62D-03 Err=  8.42D-07
 Maximum DWI energy   std dev =  0.000019331 at pt    28
 Maximum DWI gradient std dev =  0.253941656 at pt    28
 Point Number:   9          Path Number:   1
   CHANGE IN THE REACTION COORDINATE =    0.34647
   NET REACTION COORDINATE UP TO THIS POINT =    3.12873
  # OF POINTS ALONG THE PATH =   9
  # OF STEPS =   1

 Calculating another point on the path.
 IRC-IRC-IRC-IRC-IRC-IRC-IRC-IRC-IRC-IRC-IRC-IRC-IRC-IRC-IRC-IRC-IRC-IRC
                          Input orientation:                          
 ---------------------------------------------------------------------
 Center     Atomic      Atomic             Coordinates (Angstroms)
 Number     Number       Type             X           Y           Z
 ---------------------------------------------------------------------
      1          6           0        0.067614   -0.201808    0.432490
      2          1           0       -0.630142    0.268068    1.102446
      3          1           0       -0.127008   -1.252805    0.314120
      4          1           0        1.089169   -0.006027    0.706771
      5         17           0        0.470905   -1.407992    3.016911
      6         35           0       -0.223209    0.667306   -1.429858
 ---------------------------------------------------------------------
                    Distance matrix (angstroms):
                    1          2          3          4          5
     1  C    0.000000
     2  H    1.075400   0.000000
     3  H    1.075400   1.785401   0.000000
     4  H    1.075702   1.785417   1.785417   0.000000
     5  Cl   2.880409   2.772482   2.772483   2.772094   0.000000
     6  Br   2.075640   2.595679   2.595678   2.596324   4.956048
                    6
     6  Br   0.000000
 Symmetry turned off by external request.
 Stoichiometry    CH3BrCl(1-)
 Framework group  C1[X(CH3BrCl)]
 Deg. of freedom    12
 Full point group                 C1      NOp   1
 Rotational constants (GHZ):         157.3095860           0.8394248           0.8394247
 Basis read from rwf:  (6D, 7F)
    51 basis functions,   108 primitive gaussians,    51 cartesian basis functions
    31 alpha electrons       31 beta electrons
       nuclear repulsion energy       176.6931735175 Hartrees.
 NAtoms=    6 NActive=    6 NUniq=    6 SFac= 1.00D+00 NAtFMM=   60 NAOKFM=F Big=F
 Integral buffers will be    131072 words long.
 Raffenetti 1 integral format.
 Two-electron integral symmetry is turned off.
 One-electron integrals computed using PRISM.
 NBasis=    51 RedAO= T EigKep=  4.87D-03  NBF=    51
 NBsUse=    51 1.00D-06 EigRej= -1.00D+00 NBFU=    51
 Initial guess from the checkpoint file:  "example1_IRC.chk"
 B after Tr=     0.000114   -0.000308    0.000666
         Rot=    1.000000   -0.000001    0.000002    0.000001 Ang=  -0.00 deg.
 ExpMin= 1.65D-01 ExpMax= 6.10D+03 ExpMxC= 6.10D+03 IAcc=3 IRadAn=         5 AccDes= 0.00D+00
 Harris functional with IExCor=  205 and IRadAn=       5 diagonalized for initial guess.
 HarFok:  IExCor=  205 AccDes= 0.00D+00 IRadAn=         5 IDoV= 1 UseB2=F ITyADJ=14
 ICtDFT=  3500011 ScaDFX=  1.000000  1.000000  1.000000  1.000000
 FoFCou: FMM=F IPFlag=           0 FMFlag=      100000 FMFlg1=           0
         NFxFlg=           0 DoJE=T BraDBF=F KetDBF=T FulRan=T
         wScrn=  0.000000 ICntrl=       500 IOpCl=  0 I1Cent=   200000004 NGrid=           0
         NMat0=    1 NMatS0=      1 NMatT0=    0 NMatD0=    1 NMtDS0=    0 NMtDT0=    0
 Symmetry not used in FoFCou.
 Keep R1 ints in memory in canonical form, NReq=1713218.
 Requested convergence on RMS density matrix=1.00D-08 within 128 cycles.
 Requested convergence on MAX density matrix=1.00D-06.
 Requested convergence on             energy=1.00D-06.
 No special actions if energy rises.
 SCF Done:  E(RHF) =  -3056.81983689     A.U. after    9 cycles
            NFock=  9  Conv=0.84D-08     -V/T= 1.9973
 Range of M.O.s used for correlation:     1    51
 NBasis=    51 NAE=    31 NBE=    31 NFC=     0 NFV=     0
 NROrb=     51 NOA=    31 NOB=    31 NVA=    20 NVB=    20

 **** Warning!!: The largest alpha MO coefficient is  0.10787827D+02

 Symmetrizing basis deriv contribution to polar:
 IMax=3 JMax=2 DiffMx= 0.00D+00
 Calling FoFJK, ICntrl=      2127 FMM=F ISym2X=0 I1Cent= 0 IOpClX= 0 NMat=1 NMatS=1 NMatT=0.
 -------------------------------------------------------------------
 Center     Atomic                   Forces (Hartrees/Bohr)
 Number     Number              X              Y              Z
 -------------------------------------------------------------------
      1        6           0.000811649   -0.001788443    0.003969105
      2        1           0.002812440   -0.001219367   -0.004925123
      3        1           0.000554658    0.005604981   -0.001387560
      4        1          -0.005070888    0.000005306   -0.003246710
      5       17           0.000950103   -0.002842257    0.006089801
      6       35          -0.000057962    0.000239780   -0.000499515
 -------------------------------------------------------------------
 Cartesian Forces:  Max     0.006089801 RMS     0.003069072
 IRC-IRC-IRC-IRC-IRC-IRC-IRC-IRC-IRC-IRC-IRC-IRC-IRC-IRC-IRC-IRC-IRC-IRC
 Pt 10 Step number   1 out of a maximum of  20
 Modified Bulirsch-Stoer Extrapolation Cycles:
    EPS =    0.000010000000000
      PEZero:  N= 2 I= 1 D=  1.81D-03 Err=  6.07D-04
      PEZero:  N= 3 I= 2 D=  1.81D-03 Err=  4.04D-04
      PEZero:  N= 3 I= 1 D=  3.62D-03 Err=  2.66D-06
 Maximum DWI energy   std dev =  0.000148507 at pt    -1
 Maximum DWI gradient std dev =  0.861344492 at pt    56
 Point Number:  10          Path Number:   1
   CHANGE IN THE REACTION COORDINATE =    0.33600
   NET REACTION COORDINATE UP TO THIS POINT =    3.46473
  # OF POINTS ALONG THE PATH =  10
  # OF STEPS =   1

 Maximum number of steps reached.
 Calculation of FORWARD path complete.
 Beginning calculation of the REVERSE path.
 
 Calculating another point on the path.
 IRC-IRC-IRC-IRC-IRC-IRC-IRC-IRC-IRC-IRC-IRC-IRC-IRC-IRC-IRC-IRC-IRC-IRC
                          Input orientation:                          
 ---------------------------------------------------------------------
 Center     Atomic      Atomic             Coordinates (Angstroms)
 Number     Number       Type             X           Y           Z
 ---------------------------------------------------------------------
      1          6           0        0.143738   -0.429120    0.919616
      2          1           0       -0.629938    0.224845    1.237935
      3          1           0       -0.113871   -1.335124    0.429346
      4          1           0        1.133992   -0.055891    0.831578
      5         17           0        0.458623   -1.371264    2.938216
      6         35           0       -0.230056    0.687752   -1.473673
 ---------------------------------------------------------------------
                    Distance matrix (angstroms):
                    1          2          3          4          5
     1  C    0.000000
     2  H    1.061872   0.000000
     3  H    1.061872   1.831296   0.000000
     4  H    1.061910   1.831772   1.831772   0.000000
     5  Cl   2.249785   2.573613   2.573613   2.573762   0.000000
     6  Br   2.667388   2.779750   2.779750   2.779895   4.917173
                    6
     6  Br   0.000000
 Symmetry turned off by external request.
 Stoichiometry    CH3BrCl(1-)
 Framework group  C1[X(CH3BrCl)]
 Deg. of freedom    12
 Full point group                 C1      NOp   1
 Rotational constants (GHZ):         149.4735711           0.8356212           0.8356196
 Basis read from rwf:  (6D, 7F)
    51 basis functions,   108 primitive gaussians,    51 cartesian basis functions
    31 alpha electrons       31 beta electrons
       nuclear repulsion energy       169.9973414167 Hartrees.
 NAtoms=    6 NActive=    6 NUniq=    6 SFac= 1.00D+00 NAtFMM=   60 NAOKFM=F Big=F
 Integral buffers will be    131072 words long.
 Raffenetti 1 integral format.
 Two-electron integral symmetry is turned off.
 One-electron integrals computed using PRISM.
 NBasis=    51 RedAO= T EigKep=  4.91D-03  NBF=    51
 NBsUse=    51 1.00D-06 EigRej= -1.00D+00 NBFU=    51
 Initial guess from the checkpoint file:  "example1_IRC.chk"
 B after Tr=     0.002059   -0.006174    0.013226
         Rot=    1.000000    0.000000   -0.000001   -0.000000 Ang=   0.00 deg.
 ExpMin= 1.65D-01 ExpMax= 6.10D+03 ExpMxC= 6.10D+03 IAcc=3 IRadAn=         5 AccDes= 0.00D+00
 Harris functional with IExCor=  205 and IRadAn=       5 diagonalized for initial guess.
 HarFok:  IExCor=  205 AccDes= 0.00D+00 IRadAn=         5 IDoV= 1 UseB2=F ITyADJ=14
 ICtDFT=  3500011 ScaDFX=  1.000000  1.000000  1.000000  1.000000
 FoFCou: FMM=F IPFlag=           0 FMFlag=      100000 FMFlg1=           0
         NFxFlg=           0 DoJE=T BraDBF=F KetDBF=T FulRan=T
         wScrn=  0.000000 ICntrl=       500 IOpCl=  0 I1Cent=   200000004 NGrid=           0
         NMat0=    1 NMatS0=      1 NMatT0=    0 NMatD0=    1 NMtDS0=    0 NMtDT0=    0
 Symmetry not used in FoFCou.
 Keep R1 ints in memory in canonical form, NReq=1713086.
 Requested convergence on RMS density matrix=1.00D-08 within 128 cycles.
 Requested convergence on MAX density matrix=1.00D-06.
 Requested convergence on             energy=1.00D-06.
 No special actions if energy rises.
 SCF Done:  E(RHF) =  -3056.80553832     A.U. after   12 cycles
            NFock= 12  Conv=0.53D-08     -V/T= 1.9973
 Range of M.O.s used for correlation:     1    51
 NBasis=    51 NAE=    31 NBE=    31 NFC=     0 NFV=     0
 NROrb=     51 NOA=    31 NOB=    31 NVA=    20 NVB=    20

 **** Warning!!: The largest alpha MO coefficient is  0.10763715D+02

 Symmetrizing basis deriv contribution to polar:
 IMax=3 JMax=2 DiffMx= 0.00D+00
 Calling FoFJK, ICntrl=      2127 FMM=F ISym2X=0 I1Cent= 0 IOpClX= 0 NMat=1 NMatS=1 NMatT=0.
 -------------------------------------------------------------------
 Center     Atomic                   Forces (Hartrees/Bohr)
 Number     Number              X              Y              Z
 -------------------------------------------------------------------
      1        6           0.000503969   -0.001644751    0.003494816
      2        1           0.000462676   -0.000393290    0.000026678
      3        1           0.000207031    0.000379561    0.000427256
      4        1          -0.000528036   -0.000293704    0.000229574
      5       17          -0.000262669    0.000801132   -0.001713226
      6       35          -0.000382971    0.001151052   -0.002465097
 -------------------------------------------------------------------
 Cartesian Forces:  Max     0.003494816 RMS     0.001236570
 IRC-IRC-IRC-IRC-IRC-IRC-IRC-IRC-IRC-IRC-IRC-IRC-IRC-IRC-IRC-IRC-IRC-IRC
 Pt 11 Step number   1 out of a maximum of  20
 Modified Bulirsch-Stoer Extrapolation Cycles:
    EPS =    0.000010000000000
      PEZero:  N= 2 I= 1 D=  9.06D-04 Err=  5.19D-03
      PEZero:  N= 3 I= 2 D=  9.06D-04 Err=  1.69D-03
      PEZero:  N= 3 I= 1 D=  1.81D-03 Err=  2.66D-03
      PEZero:  N= 4 I= 3 D=  4.53D-04 Err=  1.19D-03
      PEZero:  N= 4 I= 2 D=  1.36D-03 Err=  9.98D-05
      PEZero:  N= 4 I= 1 D=  2.27D-03 Err=  1.13D-03
      PEZero:  N= 5 I= 4 D=  4.53D-04 Err=  7.84D-04
      PEZero:  N= 5 I= 3 D=  9.06D-04 Err=  1.48D-05
      PEZero:  N= 5 I= 2 D=  1.81D-03 Err=  3.51D-05
      PEZero:  N= 6 I= 5 D=  2.27D-04 Err=  5.85D-04
      PEZero:  N= 6 I= 4 D=  6.80D-04 Err=  4.28D-06
      PEZero:  N= 6 I= 3 D=  1.13D-03 Err=  3.75D-06
      PEZero:  N= 6 I= 2 D=  2.04D-03 Err=  3.66D-05
 Maximum DWI energy   std dev =  0.000006746 at pt     2
 Maximum DWI gradient std dev =  0.442517155 at pt     2
 Point Number:   1          Path Number:   2
   CHANGE IN THE REACTION COORDINATE =    0.34783
   NET REACTION COORDINATE UP TO THIS POINT =    0.34783
  # OF POINTS ALONG THE PATH =  11
  # OF STEPS =   1

 Calculating another point on the path.
 IRC-IRC-IRC-IRC-IRC-IRC-IRC-IRC-IRC-IRC-IRC-IRC-IRC-IRC-IRC-IRC-IRC-IRC
                          Input orientation:                          
 ---------------------------------------------------------------------
 Center     Atomic      Atomic             Coordinates (Angstroms)
 Number     Number       Type             X           Y           Z
 ---------------------------------------------------------------------
      1          6           0        0.150644   -0.450047    0.964399
      2          1           0       -0.626143    0.218657    1.246845
      3          1           0       -0.111432   -1.337212    0.440381
      4          1           0        1.132636   -0.061525    0.841581
      5         17           0        0.457650   -1.368305    2.931887
      6         35           0       -0.230727    0.689773   -1.478000
 ---------------------------------------------------------------------
                    Distance matrix (angstroms):
                    1          2          3          4          5
     1  C    0.000000
     2  H    1.063174   0.000000
     3  H    1.063174   1.826483   0.000000
     4  H    1.063175   1.826484   1.826484   0.000000
     5  Cl   2.192820   2.555861   2.555861   2.555906   0.000000
     6  Br   2.722122   2.793400   2.793400   2.793504   4.914941
                    6
     6  Br   0.000000
 Symmetry turned off by external request.
 This structure is nearly, but not quite of a higher symmetry.
 Consider Symm=Loose if the higher symmetry is desired.
 Stoichiometry    CH3BrCl(1-)
 Framework group  C1[X(CH3BrCl)]
 Deg. of freedom    12
 Full point group                 C1      NOp   1
 Rotational constants (GHZ):         150.3143403           0.8343109           0.8343109
 Basis read from rwf:  (6D, 7F)
    51 basis functions,   108 primitive gaussians,    51 cartesian basis functions
    31 alpha electrons       31 beta electrons
       nuclear repulsion energy       169.7789230039 Hartrees.
 NAtoms=    6 NActive=    6 NUniq=    6 SFac= 1.00D+00 NAtFMM=   60 NAOKFM=F Big=F
 Integral buffers will be    131072 words long.
 Raffenetti 1 integral format.
 Two-electron integral symmetry is turned off.
 One-electron integrals computed using PRISM.
 NBasis=    51 RedAO= T EigKep=  4.91D-03  NBF=    51
 NBsUse=    51 1.00D-06 EigRej= -1.00D+00 NBFU=    51
 Initial guess from the checkpoint file:  "example1_IRC.chk"
 B after Tr=     0.000194   -0.000572    0.001227
         Rot=    1.000000    0.000000   -0.000000   -0.000000 Ang=   0.00 deg.
 ExpMin= 1.65D-01 ExpMax= 6.10D+03 ExpMxC= 6.10D+03 IAcc=3 IRadAn=         5 AccDes= 0.00D+00
 Harris functional with IExCor=  205 and IRadAn=       5 diagonalized for initial guess.
 HarFok:  IExCor=  205 AccDes= 0.00D+00 IRadAn=         5 IDoV= 1 UseB2=F ITyADJ=14
 ICtDFT=  3500011 ScaDFX=  1.000000  1.000000  1.000000  1.000000
 FoFCou: FMM=F IPFlag=           0 FMFlag=      100000 FMFlg1=           0
         NFxFlg=           0 DoJE=T BraDBF=F KetDBF=T FulRan=T
         wScrn=  0.000000 ICntrl=       500 IOpCl=  0 I1Cent=   200000004 NGrid=           0
         NMat0=    1 NMatS0=      1 NMatT0=    0 NMatD0=    1 NMtDS0=    0 NMtDT0=    0
 Symmetry not used in FoFCou.
 Keep R1 ints in memory in canonical form, NReq=1713086.
 Requested convergence on RMS density matrix=1.00D-08 within 128 cycles.
 Requested convergence on MAX density matrix=1.00D-06.
 Requested convergence on             energy=1.00D-06.
 No special actions if energy rises.
 SCF Done:  E(RHF) =  -3056.80613296     A.U. after   10 cycles
            NFock= 10  Conv=0.40D-08     -V/T= 1.9973
 Range of M.O.s used for correlation:     1    51
 NBasis=    51 NAE=    31 NBE=    31 NFC=     0 NFV=     0
 NROrb=     51 NOA=    31 NOB=    31 NVA=    20 NVB=    20

 **** Warning!!: The largest alpha MO coefficient is  0.10759213D+02

 Symmetrizing basis deriv contribution to polar:
 IMax=3 JMax=2 DiffMx= 0.00D+00
 Calling FoFJK, ICntrl=      2127 FMM=F ISym2X=0 I1Cent= 0 IOpClX= 0 NMat=1 NMatS=1 NMatT=0.
 -------------------------------------------------------------------
 Center     Atomic                   Forces (Hartrees/Bohr)
 Number     Number              X              Y              Z
 -------------------------------------------------------------------
      1        6           0.000877703   -0.002639494    0.005652403
      2        1           0.000759035   -0.000731585   -0.000028322
      3        1           0.000280196    0.000715862    0.000721944
      4        1          -0.000875555   -0.000470750    0.000349389
      5       17          -0.000371095    0.001117595   -0.002392969
      6       35          -0.000670284    0.002008371   -0.004302446
 -------------------------------------------------------------------
 Cartesian Forces:  Max     0.005652403 RMS     0.002015612
 IRC-IRC-IRC-IRC-IRC-IRC-IRC-IRC-IRC-IRC-IRC-IRC-IRC-IRC-IRC-IRC-IRC-IRC
 Pt 12 Step number   1 out of a maximum of  20
 Modified Bulirsch-Stoer Extrapolation Cycles:
    EPS =    0.000010000000000
      PEZero:  N= 2 I= 1 D=  1.81D-03 Err=  7.78D-05
      PEZero:  N= 3 I= 2 D=  1.81D-03 Err=  5.19D-05
      PEZero:  N= 3 I= 1 D=  3.62D-03 Err=  7.80D-07
 Maximum DWI energy   std dev =  0.000006634 at pt    73
 Maximum DWI gradient std dev =  0.248804217 at pt    53
 Point Number:   2          Path Number:   2
   CHANGE IN THE REACTION COORDINATE =    0.34773
   NET REACTION COORDINATE UP TO THIS POINT =    0.69557
  # OF POINTS ALONG THE PATH =  12
  # OF STEPS =   1

 Calculating another point on the path.
 IRC-IRC-IRC-IRC-IRC-IRC-IRC-IRC-IRC-IRC-IRC-IRC-IRC-IRC-IRC-IRC-IRC-IRC
                          Input orientation:                          
 ---------------------------------------------------------------------
 Center     Atomic      Atomic             Coordinates (Angstroms)
 Number     Number       Type             X           Y           Z
 ---------------------------------------------------------------------
      1          6           0        0.157604   -0.470919    1.009107
      2          1           0       -0.620922    0.209930    1.258325
      3          1           0       -0.108373   -1.339404    0.455249
      4          1           0        1.130477   -0.069082    0.854783
      5         17           0        0.456852   -1.365904    2.926745
      6         35           0       -0.231480    0.692028   -1.482832
 ---------------------------------------------------------------------
                    Distance matrix (angstroms):
                    1          2          3          4          5
     1  C    0.000000
     2  H    1.063846   0.000000
     3  H    1.063846   1.818812   0.000000
     4  H    1.063846   1.818816   1.818816   0.000000
     5  Cl   2.137260   2.535444   2.535444   2.535457   0.000000
     6  Br   2.777336   2.810343   2.810343   2.810455   4.914596
                    6
     6  Br   0.000000
 Symmetry turned off by external request.
 Stoichiometry    CH3BrCl(1-)
 Framework group  C1[X(CH3BrCl)]
 Deg. of freedom    12
 Full point group                 C1      NOp   1
 Rotational constants (GHZ):         151.5846283           0.8322787           0.8322787
 Basis read from rwf:  (6D, 7F)
    51 basis functions,   108 primitive gaussians,    51 cartesian basis functions
    31 alpha electrons       31 beta electrons
       nuclear repulsion energy       169.5748778165 Hartrees.
 NAtoms=    6 NActive=    6 NUniq=    6 SFac= 1.00D+00 NAtFMM=   60 NAOKFM=F Big=F
 Integral buffers will be    131072 words long.
 Raffenetti 1 integral format.
 Two-electron integral symmetry is turned off.
 One-electron integrals computed using PRISM.
 NBasis=    51 RedAO= T EigKep=  4.92D-03  NBF=    51
 NBsUse=    51 1.00D-06 EigRej= -1.00D+00 NBFU=    51
 Initial guess from the checkpoint file:  "example1_IRC.chk"
 B after Tr=     0.000247   -0.000742    0.001588
         Rot=    1.000000   -0.000000    0.000000    0.000000 Ang=  -0.00 deg.
 ExpMin= 1.65D-01 ExpMax= 6.10D+03 ExpMxC= 6.10D+03 IAcc=3 IRadAn=         5 AccDes= 0.00D+00
 Harris functional with IExCor=  205 and IRadAn=       5 diagonalized for initial guess.
 HarFok:  IExCor=  205 AccDes= 0.00D+00 IRadAn=         5 IDoV= 1 UseB2=F ITyADJ=14
 ICtDFT=  3500011 ScaDFX=  1.000000  1.000000  1.000000  1.000000
 FoFCou: FMM=F IPFlag=           0 FMFlag=      100000 FMFlg1=           0
         NFxFlg=           0 DoJE=T BraDBF=F KetDBF=T FulRan=T
         wScrn=  0.000000 ICntrl=       500 IOpCl=  0 I1Cent=   200000004 NGrid=           0
         NMat0=    1 NMatS0=      1 NMatT0=    0 NMatD0=    1 NMtDS0=    0 NMtDT0=    0
 Symmetry not used in FoFCou.
 Keep R1 ints in memory in canonical form, NReq=1713059.
 Requested convergence on RMS density matrix=1.00D-08 within 128 cycles.
 Requested convergence on MAX density matrix=1.00D-06.
 Requested convergence on             energy=1.00D-06.
 No special actions if energy rises.
 SCF Done:  E(RHF) =  -3056.80691763     A.U. after   10 cycles
            NFock= 10  Conv=0.34D-08     -V/T= 1.9972
 Range of M.O.s used for correlation:     1    51
 NBasis=    51 NAE=    31 NBE=    31 NFC=     0 NFV=     0
 NROrb=     51 NOA=    31 NOB=    31 NVA=    20 NVB=    20

 **** Warning!!: The largest alpha MO coefficient is  0.10754231D+02

 Symmetrizing basis deriv contribution to polar:
[...]
 Number     Number       Type             X           Y           Z
 ---------------------------------------------------------------------
      1          6           0        0.183532   -0.548561    1.175445
      2          1           0       -0.597012    0.160597    1.340924
      3          1           0       -0.091391   -1.367796    0.548702
      4          1           0        1.130697   -0.114609    0.942756
      5         17           0        0.463738   -1.386459    2.970796
      6         35           0       -0.238873    0.714137   -1.530203
 ---------------------------------------------------------------------
                    Distance matrix (angstroms):
                    1          2          3          4          5
     1  C    0.000000
     2  H    1.067491   0.000000
     3  H    1.067491   1.794228   0.000000
     4  H    1.067511   1.794228   1.794228   0.000000
     5  Cl   2.000968   2.484966   2.484966   2.485032   0.000000
     6  Br   3.015520   2.945851   2.945851   2.945855   5.016488
                    6
     6  Br   0.000000
 Symmetry turned off by external request.
 This structure is nearly, but not quite of a higher symmetry.
 Consider Symm=Loose if the higher symmetry is desired.
 Stoichiometry    CH3BrCl(1-)
 Framework group  C1[X(CH3BrCl)]
 Deg. of freedom    12
 Full point group                 C1      NOp   1
 Rotational constants (GHZ):         155.7674646           0.7915512           0.7915512
 Basis read from rwf:  (6D, 7F)
    51 basis functions,   108 primitive gaussians,    51 cartesian basis functions
    31 alpha electrons       31 beta electrons
       nuclear repulsion energy       166.1216287158 Hartrees.
 NAtoms=    6 NActive=    6 NUniq=    6 SFac= 1.00D+00 NAtFMM=   60 NAOKFM=F Big=F
 Integral buffers will be    131072 words long.
 Raffenetti 1 integral format.
 Two-electron integral symmetry is turned off.
 One-electron integrals computed using PRISM.
 NBasis=    51 RedAO= T EigKep=  4.94D-03  NBF=    51
 NBsUse=    51 1.00D-06 EigRej= -1.00D+00 NBFU=    51
 Initial guess from the checkpoint file:  "example1_IRC.chk"
 B after Tr=     0.000128   -0.000374    0.000803
         Rot=    1.000000    0.000000   -0.000000   -0.000000 Ang=   0.00 deg.
 ExpMin= 1.65D-01 ExpMax= 6.10D+03 ExpMxC= 6.10D+03 IAcc=3 IRadAn=         5 AccDes= 0.00D+00
 Harris functional with IExCor=  205 and IRadAn=       5 diagonalized for initial guess.
 HarFok:  IExCor=  205 AccDes= 0.00D+00 IRadAn=         5 IDoV= 1 UseB2=F ITyADJ=14
 ICtDFT=  3500011 ScaDFX=  1.000000  1.000000  1.000000  1.000000
 FoFCou: FMM=F IPFlag=           0 FMFlag=      100000 FMFlg1=           0
         NFxFlg=           0 DoJE=T BraDBF=F KetDBF=T FulRan=T
         wScrn=  0.000000 ICntrl=       500 IOpCl=  0 I1Cent=   200000004 NGrid=           0
         NMat0=    1 NMatS0=      1 NMatT0=    0 NMatD0=    1 NMtDS0=    0 NMtDT0=    0
 Symmetry not used in FoFCou.
 Keep R1 ints in memory in canonical form, NReq=1712894.
 Requested convergence on RMS density matrix=1.00D-08 within 128 cycles.
 Requested convergence on MAX density matrix=1.00D-06.
 Requested convergence on             energy=1.00D-06.
 No special actions if energy rises.
 SCF Done:  E(RHF) =  -3056.80920763     A.U. after    9 cycles
            NFock=  9  Conv=0.25D-08     -V/T= 1.9972
 Range of M.O.s used for correlation:     1    51
 NBasis=    51 NAE=    31 NBE=    31 NFC=     0 NFV=     0
 NROrb=     51 NOA=    31 NOB=    31 NVA=    20 NVB=    20

 **** Warning!!: The largest alpha MO coefficient is  0.10727864D+02

 Symmetrizing basis deriv contribution to polar:
 IMax=3 JMax=2 DiffMx= 0.00D+00
 Calling FoFJK, ICntrl=      2127 FMM=F ISym2X=0 I1Cent= 0 IOpClX= 0 NMat=1 NMatS=1 NMatT=0.
 -------------------------------------------------------------------
 Center     Atomic                   Forces (Hartrees/Bohr)
 Number     Number              X              Y              Z
 -------------------------------------------------------------------
      1        6          -0.000126767    0.000419527   -0.000890381
      2        1           0.000586292   -0.000688370    0.000363653
      3        1           0.000253192    0.000318593    0.000885634
      4        1          -0.000560620   -0.000514049    0.000633935
      5       17           0.000281926   -0.000833889    0.001788693
      6       35          -0.000434023    0.001298189   -0.002781536
 -------------------------------------------------------------------
 Cartesian Forces:  Max     0.002781536 RMS     0.000984602
 IRC-IRC-IRC-IRC-IRC-IRC-IRC-IRC-IRC-IRC-IRC-IRC-IRC-IRC-IRC-IRC-IRC-IRC
 Pt 18 Step number   1 out of a maximum of  20
 Modified Bulirsch-Stoer Extrapolation Cycles:
    EPS =    0.000010000000000
      PEZero:  N= 2 I= 1 D=  1.81D-03 Err=  5.80D-02
      PEZero:  N= 3 I= 2 D=  1.81D-03 Err=  1.00D-01
      PEZero:  N= 3 I= 1 D=  3.62D-03 Err=  9.23D-02
      PEZero:  N= 4 I= 3 D=  9.06D-04 Err=  1.32D-01
      PEZero:  N= 4 I= 2 D=  2.72D-03 Err=  7.53D-02
      PEZero:  N= 4 I= 1 D=  4.53D-03 Err=  3.50D-02
      PEZero:  N= 5 I= 4 D=  9.06D-04 Err=  2.04D-04
      PEZero:  N= 5 I= 3 D=  1.81D-03 Err=  1.31D-01
      PEZero:  N= 6 I= 5 D=  4.53D-04 Err=  1.53D-04
      PEZero:  N= 6 I= 4 D=  1.36D-03 Err=  9.48D-08
      PEZero:  N= 6 I= 3 D=  2.26D-03 Err=  4.52D-02
 Maximum DWI energy   std dev =  0.000008233 at pt    -1
 Maximum DWI gradient std dev =  0.701942224 at pt   150
 Point Number:   8          Path Number:   2
   CHANGE IN THE REACTION COORDINATE =    0.34398
   NET REACTION COORDINATE UP TO THIS POINT =    2.77203
  # OF POINTS ALONG THE PATH =  18
  # OF STEPS =   1

 Calculating another point on the path.
 IRC-IRC-IRC-IRC-IRC-IRC-IRC-IRC-IRC-IRC-IRC-IRC-IRC-IRC-IRC-IRC-IRC-IRC
                          Input orientation:                          
 ---------------------------------------------------------------------
 Center     Atomic      Atomic             Coordinates (Angstroms)
 Number     Number       Type             X           Y           Z
 ---------------------------------------------------------------------
      1          6           0        0.185805   -0.555525    1.190332
      2          1           0       -0.590885    0.143039    1.377468
      3          1           0       -0.085572   -1.384421    0.585730
      4          1           0        1.135796   -0.132064    0.979686
      5         17           0        0.467460   -1.397559    2.994586
      6         35           0       -0.239818    0.716983   -1.536297
 ---------------------------------------------------------------------
                    Distance matrix (angstroms):
                    1          2          3          4          5
     1  C    0.000000
     2  H    1.061253   0.000000
     3  H    1.061253   1.793132   0.000000
     4  H    1.061213   1.793137   1.793137   0.000000
     5  Cl   2.010892   2.471560   2.471559   2.471431   0.000000
     6  Br   3.038903   2.990432   2.990432   2.990546   5.049795
                    6
     6  Br   0.000000
 Symmetry turned off by external request.
 Stoichiometry    CH3BrCl(1-)
 Framework group  C1[X(CH3BrCl)]
 Deg. of freedom    12
 Full point group                 C1      NOp   1
 Rotational constants (GHZ):         155.9574046           0.7808127           0.7808127
 Basis read from rwf:  (6D, 7F)
    51 basis functions,   108 primitive gaussians,    51 cartesian basis functions
    31 alpha electrons       31 beta electrons
       nuclear repulsion energy       165.1219036848 Hartrees.
 NAtoms=    6 NActive=    6 NUniq=    6 SFac= 1.00D+00 NAtFMM=   60 NAOKFM=F Big=F
 Integral buffers will be    131072 words long.
 Raffenetti 1 integral format.
 Two-electron integral symmetry is turned off.
 One-electron integrals computed using PRISM.
 NBasis=    51 RedAO= T EigKep=  4.95D-03  NBF=    51
 NBsUse=    51 1.00D-06 EigRej= -1.00D+00 NBFU=    51
 Initial guess from the checkpoint file:  "example1_IRC.chk"
 B after Tr=     0.001887   -0.005654    0.012112
         Rot=    1.000000   -0.000000    0.000001    0.000000 Ang=  -0.00 deg.
 ExpMin= 1.65D-01 ExpMax= 6.10D+03 ExpMxC= 6.10D+03 IAcc=3 IRadAn=         5 AccDes= 0.00D+00
 Harris functional with IExCor=  205 and IRadAn=       5 diagonalized for initial guess.
 HarFok:  IExCor=  205 AccDes= 0.00D+00 IRadAn=         5 IDoV= 1 UseB2=F ITyADJ=14
 ICtDFT=  3500011 ScaDFX=  1.000000  1.000000  1.000000  1.000000
 FoFCou: FMM=F IPFlag=           0 FMFlag=      100000 FMFlg1=           0
         NFxFlg=           0 DoJE=T BraDBF=F KetDBF=T FulRan=T
         wScrn=  0.000000 ICntrl=       500 IOpCl=  0 I1Cent=   200000004 NGrid=           0
         NMat0=    1 NMatS0=      1 NMatT0=    0 NMatD0=    1 NMtDS0=    0 NMtDT0=    0
 Symmetry not used in FoFCou.
 Keep R1 ints in memory in canonical form, NReq=1712877.
 Requested convergence on RMS density matrix=1.00D-08 within 128 cycles.
 Requested convergence on MAX density matrix=1.00D-06.
 Requested convergence on             energy=1.00D-06.
 No special actions if energy rises.
 SCF Done:  E(RHF) =  -3056.80919568     A.U. after    9 cycles
            NFock=  9  Conv=0.24D-08     -V/T= 1.9972
 Range of M.O.s used for correlation:     1    51
 NBasis=    51 NAE=    31 NBE=    31 NFC=     0 NFV=     0
 NROrb=     51 NOA=    31 NOB=    31 NVA=    20 NVB=    20

 **** Warning!!: The largest alpha MO coefficient is  0.10723752D+02

 Symmetrizing basis deriv contribution to polar:
 IMax=3 JMax=2 DiffMx= 0.00D+00
 Calling FoFJK, ICntrl=      2127 FMM=F ISym2X=0 I1Cent= 0 IOpClX= 0 NMat=1 NMatS=1 NMatT=0.
 -------------------------------------------------------------------
 Center     Atomic                   Forces (Hartrees/Bohr)
 Number     Number              X              Y              Z
 -------------------------------------------------------------------
      1        6           0.000943170   -0.002911121    0.006218458
      2        1          -0.002683186    0.003023624   -0.001279468
      3        1          -0.001123797   -0.001690253   -0.003722907
      4        1           0.002664430    0.002189219   -0.002523046
      5       17           0.000377282   -0.001143707    0.002447321
      6       35          -0.000177899    0.000532237   -0.001140359
 -------------------------------------------------------------------
 Cartesian Forces:  Max     0.006218458 RMS     0.002486686
 IRC-IRC-IRC-IRC-IRC-IRC-IRC-IRC-IRC-IRC-IRC-IRC-IRC-IRC-IRC-IRC-IRC-IRC
 Pt 19 Step number   1 out of a maximum of  20
 Modified Bulirsch-Stoer Extrapolation Cycles:
    EPS =    0.000010000000000
      PEZero:  N= 2 I= 1 D=  1.81D-03 Err=  1.80D-02
      PEZero:  N= 3 I= 2 D=  1.81D-03 Err=  1.47D-02
      PEZero:  N= 3 I= 1 D=  3.62D-03 Err=  4.20D-03
      PEZero:  N= 4 I= 3 D=  9.06D-04 Err=  1.16D-02
      PEZero:  N= 4 I= 2 D=  2.72D-03 Err=  2.84D-03
      PEZero:  N= 4 I= 1 D=  4.53D-03 Err=  2.64D-03
      PEZero:  N= 5 I= 4 D=  9.06D-04 Err=  6.36D-03
      PEZero:  N= 5 I= 3 D=  1.81D-03 Err=  3.12D-03
      PEZero:  N= 5 I= 2 D=  3.62D-03 Err=  2.37D-03
      PEZero:  N= 5 I= 1 D=  5.44D-03 Err=  2.31D-03
      PEZero:  N= 6 I= 5 D=  4.53D-04 Err=  3.33D-03
      PEZero:  N= 6 I= 4 D=  1.36D-03 Err=  3.71D-03
      PEZero:  N= 7 I= 6 D=  4.53D-04 Err=  2.42D-03
      PEZero:  N= 7 I= 5 D=  9.06D-04 Err=  3.13D-03
      PEZero:  N= 8 I= 7 D=  2.26D-04 Err=  2.02D-03
      PEZero:  N= 8 I= 6 D=  6.79D-04 Err=  9.58D-04
      PEZero:  N= 8 I= 5 D=  1.13D-03 Err=  1.62D-03
      PEZero:  N= 9 I= 8 D=  2.26D-04 Err=  1.19D-03
      PEZero:  N= 9 I= 7 D=  4.53D-04 Err=  1.08D-03
      PEZero:  N= 9 I= 6 D=  9.06D-04 Err=  1.56D-03
      PEZero:  N=10 I= 9 D=  1.13D-04 Err=  5.51D-04
      PEZero:  N=10 I= 8 D=  3.40D-04 Err=  4.53D-04
      PEZero:  N=10 I= 7 D=  5.66D-04 Err=  8.07D-04
      PEZero:  N=11 I=10 D=  1.13D-04 Err=  3.40D-04
      PEZero:  N=11 I= 9 D=  2.26D-04 Err=  8.15D-04
 Maximum DWI energy   std dev =  0.000062267 at pt  1535
 Maximum DWI gradient std dev =  1.527935453 at pt  1535
 WARNING: Bulirsch-Stoer Method is not Converging
 Point Number:   9          Path Number:   2
   CHANGE IN THE REACTION COORDINATE =    0.13783
   NET REACTION COORDINATE UP TO THIS POINT =    2.90985
  # OF POINTS ALONG THE PATH =  19
  # OF STEPS =   1

 PES minimum detected on this side of the pathway.
    Magnitude of the gradient =      0.0000554
 Calculation of REVERSE path complete.
 Reaction path calculation complete.
 
 Energies reported relative to the TS energy of       -3056.805304
 --------------------------------------------------------------------------
    Summary of reaction path following
 --------------------------------------------------------------------------
                        Energy    RxCoord
   1                   -0.00399  -2.90985
   2                   -0.00393  -2.77203
   3                   -0.00370  -2.42805
   4                   -0.00339  -2.08068
   5                   -0.00299  -1.73613
   6                   -0.00239  -1.39061
   7                   -0.00162  -1.04328
   8                   -0.00083  -0.69557
   9                   -0.00024  -0.34783
  10                    0.00000   0.00000
  11                   -0.00025   0.34775
  12                   -0.00104   0.69555
  13                   -0.00236   1.04337
  14                   -0.00413   1.39118
  15                   -0.00621   1.73901
  16                   -0.00843   2.08683
  17                   -0.01060   2.43468
  18                   -0.01252   2.78225
  19                   -0.01397   3.12873
  20                   -0.01503   3.46473
 --------------------------------------------------------------------------
 
 Total number of points:                   19
 Total number of gradient calculations:    19
 Total number of Hessian calculations:      0
 IRC-IRC-IRC-IRC-IRC-IRC-IRC-IRC-IRC-IRC-IRC-IRC-IRC-IRC-IRC-IRC-IRC-IRC
                          Input orientation:                          
 ---------------------------------------------------------------------
 Center     Atomic      Atomic             Coordinates (Angstroms)
 Number     Number       Type             X           Y           Z
 ---------------------------------------------------------------------
      1          6           0        0.185805   -0.555525    1.190332
      2          1           0       -0.590885    0.143039    1.377468
      3          1           0       -0.085572   -1.384421    0.585730
      4          1           0        1.135796   -0.132064    0.979686
      5         17           0        0.467460   -1.397559    2.994586
      6         35           0       -0.239818    0.716983   -1.536297
 ---------------------------------------------------------------------
                    Distance matrix (angstroms):
                    1          2          3          4          5
     1  C    0.000000
     2  H    1.061253   0.000000
     3  H    1.061253   1.793132   0.000000
     4  H    1.061213   1.793137   1.793137   0.000000
     5  Cl   2.010892   2.471560   2.471559   2.471431   0.000000
     6  Br   3.038903   2.990432   2.990432   2.990546   5.049795
                    6
     6  Br   0.000000
 Symmetry turned off by external request.
 Stoichiometry    CH3BrCl(1-)
 Framework group  C1[X(CH3BrCl)]
 Deg. of freedom    12
 Full point group                 C1      NOp   1
 Rotational constants (GHZ):         155.9574046           0.7808127           0.7808127

 **********************************************************************

            Population analysis using the SCF Density.

 **********************************************************************

 Alpha  occ. eigenvalues -- -486.43952-103.93177 -64.45310 -57.63884 -57.63860
 Alpha  occ. eigenvalues --  -57.63860 -11.10788 -10.32434  -9.44626  -7.78801
 Alpha  occ. eigenvalues --   -7.78489  -7.78489  -7.02168  -7.02077  -7.02077
 Alpha  occ. eigenvalues --   -2.74958  -2.74923  -2.74923  -2.74823  -2.74823
 Alpha  occ. eigenvalues --   -0.94356  -0.79160  -0.66538  -0.48746  -0.48744
 Alpha  occ. eigenvalues --   -0.34396  -0.29390  -0.29390  -0.12431  -0.12431
 Alpha  occ. eigenvalues --   -0.12246
 Alpha virt. eigenvalues --    0.29819   0.42444   0.47299   0.47300   0.86864
 Alpha virt. eigenvalues --    0.94353   0.94354   0.98936   1.05163   1.06115
 Alpha virt. eigenvalues --    1.06117   1.10921   1.13965   1.13965   1.41572
 Alpha virt. eigenvalues --    1.48648   1.48651   1.50557   2.03947  24.25967
          Condensed to atoms (all electrons):
               1          2          3          4          5          6
     1  C    5.356341   0.361932   0.361932   0.361937   0.104350  -0.001219
     2  H    0.361932   0.424830  -0.017434  -0.017430  -0.036473   0.003716
     3  H    0.361932  -0.017434   0.424830  -0.017430  -0.036473   0.003716
     4  H    0.361937  -0.017430  -0.017430   0.424832  -0.036487   0.003713
     5  Cl   0.104350  -0.036473  -0.036473  -0.036487  17.380055   0.001489
     6  Br  -0.001219   0.003716   0.003716   0.003713   0.001489  35.909437
 Mulliken charges:
               1
     1  C   -0.545273
     2  H    0.280860
     3  H    0.280860
     4  H    0.280865
     5  Cl  -0.376461
     6  Br  -0.920851
 Sum of Mulliken charges =  -1.00000
 Mulliken charges with hydrogens summed into heavy atoms:
               1
     1  C    0.297312
     5  Cl  -0.376461
     6  Br  -0.920851
 APT charges:
               1
     1  C   -0.786494
     2  H    0.415406
     3  H    0.415406
     4  H    0.415462
     5  Cl  -0.549709
     6  Br  -0.910071
 Sum of APT charges =  -1.00000
 APT charges with hydrogens summed into heavy atoms:
               1
     1  C    0.459780
     5  Cl  -0.549709
     6  Br  -0.910071
 Electronic spatial extent (au):  <R**2>=           1225.1878
 Charge=             -1.0000 electrons
 Dipole moment (field-independent basis, Debye):
    X=              0.2813    Y=             -0.8411    Z=              1.8022  Tot=              2.0085
 Quadrupole moment (field-independent basis, Debye-Ang):
   XX=            -42.2230   YY=            -48.0843   ZZ=            -71.7845
   XY=              2.2074   XZ=             -4.7297   YZ=             14.1408
 Traceless Quadrupole moment (field-independent basis, Debye-Ang):
   XX=             11.8076   YY=              5.9463   ZZ=            -17.7539
   XY=              2.2074   XZ=             -4.7297   YZ=             14.1408
 Octapole moment (field-independent basis, Debye-Ang**2):
  XXX=             -7.6798  YYY=             28.3757  ZZZ=            -98.4114  XYY=             -4.7332
  XXY=              9.3560  XXZ=            -18.2681  XZZ=            -10.1232  YZZ=             29.6476
  YYZ=            -27.6953  XYZ=              3.0504
 Hexadecapole moment (field-independent basis, Debye-Ang**3):
 XXXX=            -79.1335 YYYY=           -302.1986 ZZZZ=          -1354.0003 XXXY=             40.8622
 XXXZ=            -86.7245 YYYX=             44.0251 YYYZ=            278.3566 ZZZX=           -117.0060
 ZZZY=            347.9601 XXYY=            -64.1227 XXZZ=           -211.4112 YYZZ=           -284.8827
 XXYZ=             89.1188 YYXZ=            -35.5686 ZZXY=             26.7927
 N-N= 1.651219036848D+02 E-N=-7.666248284691D+03  KE= 3.065311497118D+03
  Exact polarizability:       0.000       0.000       0.000       0.000       0.000       0.000
 Approx polarizability:      12.360      -1.775      17.073       3.804     -11.371      36.132

 This type of calculation cannot be archived.


 EVERYBODY NEEDS BEAUTY AS WELL AS BREAD, PLACES TO PLAY IN AND PRAY IN,
 WHERE NATURE MAY HEAL AND CHEER AND GIVE STRENGTH TO BODY AND SOUL ALIKE.

                                    -- JOHN MUIR
 Job cpu time:       0 days  0 hours  0 minutes 17.6 seconds.
 Elapsed time:       0 days  0 hours  0 minutes 16.1 seconds.
 File lengths (MBytes):  RWF=     72 Int=      0 D2E=      0 Chk=      8 Scr=      8
 Normal termination of Gaussian 16 at Wed Aug 28 11:28:35 2024.
