      -----------------------------------------------------------      
     |                   =====================                   |     
     |                           x T B                           |     
     |                   =====================                   |     
     |                         S. Grimme                         |     
     |          Mulliken Center for Theoretical Chemistry        |     
     |                    University of Bonn                     |     
      -----------------------------------------------------------      

   * xtb version 6.6.0 (conda-forge) compiled by 'runner@Mac-1676020848589.local' on 2023-02-10

   xtb is free software: you can redistribute it and/or modify it under
   the terms of the GNU Lesser General Public License as published by
   the Free Software Foundation, either version 3 of the License, or
   (at your option) any later version.
   
   xtb is distributed in the hope that it will be useful,
   but WITHOUT ANY WARRANTY; without even the implied warranty of
   MERCHANTABILITY or FITNESS FOR A PARTICULAR PURPOSE.  See the
   GNU Lesser General Public License for more details.
   
   Cite this work as:
   * C. Bannwarth, E. Caldeweyher, S. Ehlert, A. Hansen, P. Pracht,
     J. Seibert, S. Spicher, S. Grimme, WIREs Comput. Mol. Sci., 2020, 11,
     e01493. DOI: 10.1002/wcms.1493
   
   for GFN2-xTB:
   * C. Bannwarth, S. Ehlert and S. Grimme., J. Chem. Theory Comput., 2019,
     15, 1652-1671. DOI: 10.1021/acs.jctc.8b01176
   for GFN1-xTB:
   * S. Grimme, C. Bannwarth, P. Shushkov, J. Chem. Theory Comput., 2017,
     13, 1989-2009. DOI: 10.1021/acs.jctc.7b00118
   for GFN0-xTB:
   * P. Pracht, E. Caldeweyher, S. Ehlert, S. Grimme, ChemRxiv, 2019, preprint.
     DOI: 10.26434/chemrxiv.8326202.v1
   for GFN-FF:
   * S. Spicher and S. Grimme, Angew. Chem. Int. Ed., 2020, 59, 15665-15673.
     DOI: 10.1002/anie.202004239
   
   for ALPB and GBSA implicit solvation:
   * S. Ehlert, M. Stahn, S. Spicher, S. Grimme, J. Chem. Theory Comput.,
     2021, 17, 4250-4261. DOI: 10.1021/acs.jctc.1c00471
   
   for DFT-D4:
   * E. Caldeweyher, C. Bannwarth and S. Grimme, J. Chem. Phys., 2017,
     147, 034112. DOI: 10.1063/1.4993215
   * E. Caldeweyher, S. Ehlert, A. Hansen, H. Neugebauer, S. Spicher,
     C. Bannwarth and S. Grimme, J. Chem. Phys., 2019, 150, 154122.
     DOI: 10.1063/1.5090222
   * E. Caldeweyher, J.-M. Mewes, S. Ehlert and S. Grimme, Phys. Chem. Chem. Phys.
     2020, 22, 8499-8512. DOI: 10.1039/D0CP00502A
   
   for sTDA-xTB:
   * S. Grimme and C. Bannwarth, J. Chem. Phys., 2016, 145, 054103.
     DOI: 10.1063/1.4959605
   
   in the mass-spec context:
   * V. Asgeirsson, C. Bauer and S. Grimme, Chem. Sci., 2017, 8, 4879.
     DOI: 10.1039/c7sc00601b
   * J. Koopman and S. Grimme, ACS Omega 2019, 4, 12, 15120-15133.
     DOI: 10.1021/acsomega.9b02011
   
   for metadynamics refer to:
   * S. Grimme, J. Chem. Theory Comput., 2019, 155, 2847-2862
     DOI: 10.1021/acs.jctc.9b00143
   
   for SPH calculations refer to:
   * S. Spicher and S. Grimme, J. Chem. Theory Comput., 2021, 17, 1701-1714
     DOI: 10.1021/acs.jctc.0c01306
   
   with help from (in alphabetical order)
   P. Atkinson, C. Bannwarth, F. Bohle, G. Brandenburg, E. Caldeweyher
   M. Checinski, S. Dohm, S. Ehlert, S. Ehrlich, I. Gerasimov, C. Hölzer
   A. Katbashev, J. Koopman, C. Lavigne, S. Lehtola, F. März, M. Müller,
   F. Musil, H. Neugebauer, J. Pisarek, C. Plett, P. Pracht, F. Pultar,
   J. Seibert, P. Shushkov, S. Spicher, M. Stahn, M. Steiner, T. Strunk,
   J. Stückrath, T. Rose, and J. Unsleber
   
 * started run on 2024/09/17 at 17:34:27.098     

           -------------------------------------------------
          |                Calculation Setup                |
           -------------------------------------------------

          program call               : xtb 2-Mercaptophenol.xyz --opt --gfn2
          coordinate file            : 2-Mercaptophenol.xyz
          omp threads                :                     8

   ID    Z sym.   atoms
    1    6 C      1-6
    2    8 O      7
    3   16 S      8
    4    1 H      9-14

           -------------------------------------------------
          |                 G F N 2 - x T B                 |
           -------------------------------------------------

        Reference                      10.1021/acs.jctc.8b01176
      * Hamiltonian:
        H0-scaling (s, p, d)           1.850000    2.230000    2.230000
        zeta-weighting                 0.500000
      * Dispersion:
        s8                             2.700000
        a1                             0.520000
        a2                             5.000000
        s9                             5.000000
      * Repulsion:
        kExp                           1.500000    1.000000
        rExp                           1.000000
      * Coulomb:
        alpha                          2.000000
        third order                    shell-resolved
        anisotropic                    true
        a3                             3.000000
        a5                             4.000000
        cn-shift                       1.200000
        cn-exp                         4.000000
        max-rad                        5.000000

q/qsh data taken from xtbrestart
CAMM data taken from xtbrestart

          ...................................................
          :                      SETUP                      :
          :.................................................:
          :  # basis functions                  44          :
          :  # atomic orbitals                  43          :
          :  # shells                           23          :
          :  # electrons                        42          :
          :  max. iterations                   250          :
          :  Hamiltonian                  GFN2-xTB          :
          :  restarted?                       true          :
          :  GBSA solvation                  false          :
          :  PC potential                    false          :
          :  electronic temp.          300.0000000     K    :
          :  accuracy                    1.0000000          :
          :  -> integral cutoff          0.2500000E+02      :
          :  -> integral neglect         0.1000000E-07      :
          :  -> SCF convergence          0.1000000E-05 Eh   :
          :  -> wf. convergence          0.1000000E-03 e    :
          :  Broyden damping             0.4000000          :
          ...................................................

 iter      E             dE          RMSdq      gap      omega  full diag
   1    -23.3241704 -0.233242E+02  0.592E+00    3.35       0.0  T
   2    -23.4164340 -0.922637E-01  0.377E+00    3.78       1.0  T
   3    -23.4697382 -0.533041E-01  0.201E+00    3.65       1.0  T
   4    -23.4789813 -0.924308E-02  0.468E-01    3.58       1.0  T
   5    -23.4804906 -0.150938E-02  0.219E-01    3.58       1.0  T
   6    -23.4807454 -0.254752E-03  0.625E-02    3.59       1.0  T
   7    -23.4807725 -0.271197E-04  0.267E-02    3.59       1.0  T
   8    -23.4807754 -0.289153E-05  0.117E-02    3.59       2.3  T
   9    -23.4807755 -0.124050E-06  0.305E-03    3.59       8.8  T
  10    -23.4807755 -0.138045E-07  0.143E-03    3.59      18.7  T
  11    -23.4807756 -0.979652E-08  0.646E-04    3.59      41.4  T
  12    -23.4807756 -0.804558E-09  0.208E-04    3.59     128.2  T

   *** convergence criteria satisfied after 12 iterations ***

         #    Occupation            Energy/Eh            Energy/eV
      -------------------------------------------------------------
         1        2.0000           -0.7173440             -19.5199
       ...           ...                  ...                  ...
        15        2.0000           -0.4825318             -13.1304
        16        2.0000           -0.4653395             -12.6625
        17        2.0000           -0.4489969             -12.2178
        18        2.0000           -0.4351442             -11.8409
        19        2.0000           -0.4140830             -11.2678
        20        2.0000           -0.3937472             -10.7144
        21        2.0000           -0.3806787             -10.3588 (HOMO)
        22                         -0.2487471              -6.7688 (LUMO)
        23                         -0.2321031              -6.3158
        24                         -0.2094404              -5.6992
        25                         -0.1395912              -3.7985
        26                         -0.1158588              -3.1527
       ...                                ...                  ...
        43                          0.6086233              16.5615
      -------------------------------------------------------------
                  HL-Gap            0.1319316 Eh            3.5900 eV
             Fermi-level           -0.3147129 Eh           -8.5638 eV

 SCC (total)                   0 d,  0 h,  0 min,  0.035 sec
 SCC setup                      ...        0 min,  0.002 sec (  6.180%)
 Dispersion                     ...        0 min,  0.000 sec (  1.201%)
 classical contributions        ...        0 min,  0.000 sec (  0.724%)
 integral evaluation            ...        0 min,  0.005 sec ( 14.675%)
 iterations                     ...        0 min,  0.024 sec ( 68.214%)
 molecular gradient             ...        0 min,  0.003 sec (  7.792%)
 printout                       ...        0 min,  0.000 sec (  1.180%)

         :::::::::::::::::::::::::::::::::::::::::::::::::::::
         ::                     SUMMARY                     ::
         :::::::::::::::::::::::::::::::::::::::::::::::::::::
         :: total energy             -23.189513754408 Eh    ::
         :: gradient norm              0.068763031689 Eh/a0 ::
         :: HOMO-LUMO gap              3.590041761033 eV    ::
         ::.................................................::
         :: SCC energy               -23.480775558844 Eh    ::
         :: -> isotropic ES            0.024689076548 Eh    ::
         :: -> anisotropic ES          0.001869362661 Eh    ::
         :: -> anisotropic XC          0.010284213420 Eh    ::
         :: -> dispersion             -0.011920910236 Eh    ::
         :: repulsion energy           0.291234752580 Eh    ::
         :: add. restraining           0.000000000000 Eh    ::
         :: total charge              -0.000000000000 e     ::
         :::::::::::::::::::::::::::::::::::::::::::::::::::::

      ----------------------------------------------------------- 
     |                   =====================                   |
     |                        A N C O P T                        |
     |                   =====================                   |
     |               Approximate Normal Coordinate               |
     |                Rational Function Optimizer                |
      ----------------------------------------------------------- 

          ...................................................
          :                      SETUP                      :
          :.................................................:
          :   optimization level            normal          :
          :   max. optcycles                   200          :
          :   ANC micro-cycles                  20          :
          :   degrees of freedom                36          :
          :.................................................:
          :   RF solver                   davidson          :
          :   write xtbopt.log                true          :
          :   linear?                        false          :
          :   energy convergence         0.5000000E-05 Eh   :
          :   grad. convergence          0.1000000E-02 Eh/α :
          :   maxmium RF displ.          1.0000000          :
          :   Hlow (freq-cutoff)         0.1000000E-01      :
          :   Hmax (freq-cutoff)         5.0000000          :
          :   S6 in model hess.         20.0000000          :
          ...................................................

generating ANC from model Hessian ...
Using Lindh-Hessian (1995)
 Shifting diagonal of input Hessian by    6.8368548957004859E-003
 Lowest  eigenvalues of input Hessian
    0.000000    0.000000    0.000000    0.000000    0.000000    0.000000
    0.010000    0.010843    0.014776    0.020980    0.026185    0.029853
    0.033222    0.048250    0.055431    0.065438    0.083250    0.090055
 Highest eigenvalues
    1.407565    1.538782    1.666744    1.811640    1.925675    1.969998


........................................................................
.............................. CYCLE    1 ..............................
........................................................................

 iter      E             dE          RMSdq      gap      omega  full diag
   1    -23.4807756 -0.234808E+02  0.892E-05    3.59       0.0  T
   2    -23.4807756 -0.196785E-10  0.575E-05    3.59     465.2  T
   3    -23.4807756 -0.178062E-10  0.362E-05    3.59     739.0  T
     SCC iter.                  ...        0 min,  0.001 sec
     gradient                   ...        0 min,  0.001 sec
 * total energy  :   -23.1895138 Eh     change       -0.1265157E-09 Eh
   gradient norm :     0.0687635 Eh/α   predicted     0.0000000E+00 (-100.00%)
   displ. norm   :     0.3034280 α      lambda       -0.1322006E-01
   maximum displ.:     0.1696215 α      in ANC's #12, #7, #19, ...

........................................................................
.............................. CYCLE    2 ..............................
........................................................................

 iter      E             dE          RMSdq      gap      omega  full diag
   1    -23.5128889 -0.235129E+02  0.337E-01    3.73       0.0  T
   2    -23.5130274 -0.138495E-03  0.194E-01    3.72       1.0  T
   3    -23.5130024  0.250215E-04  0.101E-01    3.70       1.0  T
   4    -23.5130613 -0.588679E-04  0.299E-02    3.70       1.0  T
   5    -23.5130633 -0.200081E-05  0.820E-03    3.70       3.3  T
   6    -23.5130637 -0.407306E-06  0.432E-03    3.70       6.2  T
   7    -23.5130637 -0.593925E-07  0.194E-03    3.70      13.7  T
   8    -23.5130638 -0.609652E-08  0.863E-04    3.70      31.0  T
   9    -23.5130638 -0.285800E-08  0.418E-04    3.70      63.9  T
     SCC iter.                  ...        0 min,  0.005 sec
     gradient                   ...        0 min,  0.001 sec
 * total energy  :   -23.1988295 Eh     change       -0.9315778E-02 Eh
   gradient norm :     0.0328365 Eh/α   predicted    -0.7218604E-02 ( -22.51%)
   displ. norm   :     0.2628235 α      lambda       -0.4834971E-02
   maximum displ.:     0.1511896 α      in ANC's #7, #12, #6, ...

........................................................................
.............................. CYCLE    3 ..............................
........................................................................

 iter      E             dE          RMSdq      gap      omega  full diag
   1    -23.5273640 -0.235274E+02  0.256E-01    3.81       0.0  T
   2    -23.5274793 -0.115321E-03  0.156E-01    3.84       1.0  T
   3    -23.5274795 -0.225797E-06  0.847E-02    3.83       1.0  T
   4    -23.5275120 -0.324490E-04  0.263E-02    3.84       1.0  T
   5    -23.5275138 -0.183731E-05  0.103E-02    3.84       2.6  T
   6    -23.5275141 -0.253857E-06  0.541E-03    3.84       4.9  T
   7    -23.5275142 -0.140649E-06  0.239E-03    3.84      11.2  T
   8    -23.5275142 -0.408831E-08  0.891E-04    3.84      30.0  T
   9    -23.5275142 -0.483604E-08  0.362E-04    3.84      73.8  T
     SCC iter.                  ...        0 min,  0.003 sec
     gradient                   ...        0 min,  0.002 sec
 * total energy  :   -23.2013621 Eh     change       -0.2532519E-02 Eh
   gradient norm :     0.0100494 Eh/α   predicted    -0.2584473E-02 (   2.05%)
   displ. norm   :     0.1156818 α      lambda       -0.4683804E-03
   maximum displ.:     0.0933856 α      in ANC's #7, #3, #2, ...

........................................................................
.............................. CYCLE    4 ..............................
........................................................................

 iter      E             dE          RMSdq      gap      omega  full diag
   1    -23.5253872 -0.235254E+02  0.119E-01    3.84       0.0  T
   2    -23.5253898 -0.259019E-05  0.602E-02    3.84       1.0  T
   3    -23.5253888  0.963482E-06  0.153E-02    3.84       1.7  T
   4    -23.5253908 -0.190889E-05  0.784E-03    3.84       3.4  T
   5    -23.5253908 -0.947329E-07  0.220E-03    3.84      12.2  T
   6    -23.5253909 -0.156857E-07  0.107E-03    3.84      25.0  T
   7    -23.5253909 -0.355533E-08  0.445E-04    3.84      60.1  T
   8    -23.5253909 -0.252477E-09  0.173E-04    3.84     154.6  T
     SCC iter.                  ...        0 min,  0.003 sec
     gradient                   ...        0 min,  0.001 sec
 * total energy  :   -23.2016473 Eh     change       -0.2852471E-03 Eh
   gradient norm :     0.0071765 Eh/α   predicted    -0.2373256E-03 ( -16.80%)
   displ. norm   :     0.0807295 α      lambda       -0.1331952E-03
   maximum displ.:     0.0450718 α      in ANC's #1, #7, #2, ...

........................................................................
.............................. CYCLE    5 ..............................
........................................................................

 iter      E             dE          RMSdq      gap      omega  full diag
   1    -23.5241830 -0.235242E+02  0.106E-01    3.83       0.0  T
   2    -23.5241860 -0.296974E-05  0.522E-02    3.83       1.0  T
   3    -23.5241845  0.150422E-05  0.138E-02    3.83       1.9  T
   4    -23.5241870 -0.252484E-05  0.495E-03    3.83       5.4  T
   5    -23.5241870 -0.341608E-07  0.159E-03    3.83      16.8  T
   6    -23.5241870 -0.141325E-07  0.621E-04    3.83      43.1  T
   7    -23.5241870 -0.173649E-08  0.201E-04    3.83     133.1  T
     SCC iter.                  ...        0 min,  0.002 sec
     gradient                   ...        0 min,  0.001 sec
 * total energy  :   -23.2017251 Eh     change       -0.7784267E-04 Eh
   gradient norm :     0.0035808 Eh/α   predicted    -0.6703256E-04 ( -13.89%)
   displ. norm   :     0.0425304 α      lambda       -0.3244480E-04
   maximum displ.:     0.0313783 α      in ANC's #1, #2, #4, ...

........................................................................
.............................. CYCLE    6 ..............................
........................................................................

 iter      E             dE          RMSdq      gap      omega  full diag
   1    -23.5244066 -0.235244E+02  0.482E-02    3.83       0.0  T
   2    -23.5244072 -0.553612E-06  0.233E-02    3.83       1.1  T
   3    -23.5244069  0.241409E-06  0.654E-03    3.83       4.1  T
   4    -23.5244074 -0.440779E-06  0.223E-03    3.83      12.0  T
   5    -23.5244074 -0.282292E-08  0.582E-04    3.83      45.9  T
   6    -23.5244074 -0.211519E-08  0.210E-04    3.83     127.4  T
     SCC iter.                  ...        0 min,  0.002 sec
     gradient                   ...        0 min,  0.001 sec
 * total energy  :   -23.2017485 Eh     change       -0.2340094E-04 Eh
   gradient norm :     0.0022329 Eh/α   predicted    -0.1625021E-04 ( -30.56%)
   displ. norm   :     0.0613838 α      lambda       -0.2641066E-04
   maximum displ.:     0.0509783 α      in ANC's #1, #2, #4, ...

........................................................................
.............................. CYCLE    7 ..............................
........................................................................

 iter      E             dE          RMSdq      gap      omega  full diag
   1    -23.5247316 -0.235247E+02  0.740E-02    3.82       0.0  T
   2    -23.5247325 -0.930292E-06  0.351E-02    3.82       1.0  T
   3    -23.5247324  0.525263E-07  0.705E-03    3.82       3.8  T
   4    -23.5247328 -0.322029E-06  0.294E-03    3.82       9.1  T
   5    -23.5247328 -0.527432E-08  0.566E-04    3.82      47.2  T
   6    -23.5247328 -0.127386E-08  0.291E-04    3.82      91.7  T
     SCC iter.                  ...        0 min,  0.001 sec
     gradient                   ...        0 min,  0.001 sec
 * total energy  :   -23.2017696 Eh     change       -0.2103340E-04 Eh
   gradient norm :     0.0025346 Eh/α   predicted    -0.1325618E-04 ( -36.98%)
   displ. norm   :     0.0859781 α      lambda       -0.3233598E-04
   maximum displ.:     0.0732597 α      in ANC's #1, #2, #3, ...

........................................................................
.............................. CYCLE    8 ..............................
........................................................................

 iter      E             dE          RMSdq      gap      omega  full diag
   1    -23.5250450 -0.235250E+02  0.109E-01    3.81       0.0  T
   2    -23.5250469 -0.184561E-05  0.517E-02    3.81       1.0  T
   3    -23.5250469 -0.242689E-07  0.893E-03    3.81       3.0  T
   4    -23.5250474 -0.492665E-06  0.409E-03    3.81       6.5  T
   5    -23.5250474 -0.172518E-07  0.739E-04    3.81      36.2  T
   6    -23.5250474 -0.215264E-08  0.370E-04    3.81      72.3  T
     SCC iter.                  ...        0 min,  0.003 sec
     gradient                   ...        0 min,  0.001 sec
 * total energy  :   -23.2017988 Eh     change       -0.2919491E-04 Eh
   gradient norm :     0.0034308 Eh/α   predicted    -0.1628872E-04 ( -44.21%)
   displ. norm   :     0.1730537 α      lambda       -0.6920213E-04
   maximum displ.:     0.1479390 α      in ANC's #1, #2, #26, ...

........................................................................
.............................. CYCLE    9 ..............................
........................................................................

 iter      E             dE          RMSdq      gap      omega  full diag
   1    -23.5251820 -0.235252E+02  0.231E-01    3.79       0.0  T
   2    -23.5251900 -0.800365E-05  0.109E-01    3.79       1.0  T
   3    -23.5251897  0.226198E-06  0.184E-02    3.79       1.5  T
   4    -23.5251922 -0.246932E-05  0.853E-03    3.79       3.1  T
   5    -23.5251923 -0.909827E-07  0.180E-03    3.79      14.9  T
   6    -23.5251923 -0.142583E-07  0.752E-04    3.79      35.5  T
   7    -23.5251923 -0.325615E-08  0.291E-04    3.79      91.8  T
     SCC iter.                  ...        0 min,  0.002 sec
     gradient                   ...        0 min,  0.001 sec
 * total energy  :   -23.2018605 Eh     change       -0.6169144E-04 Eh
   gradient norm :     0.0054327 Eh/α   predicted    -0.3563651E-04 ( -42.23%)
   displ. norm   :     0.4899145 α      lambda       -0.1975622E-03
   maximum displ.:     0.4226837 α      in ANC's #1, #2, #26, ...

........................................................................
.............................. CYCLE   10 ..............................
........................................................................

 iter      E             dE          RMSdq      gap      omega  full diag
   1    -23.5229689 -0.235230E+02  0.676E-01    3.70       0.0  T
   2    -23.5230454 -0.764796E-04  0.316E-01    3.73       1.0  T
   3    -23.5230332  0.121757E-04  0.614E-02    3.72       1.0  T
   4    -23.5230661 -0.329464E-04  0.258E-02    3.73       1.0  T
   5    -23.5230670 -0.811763E-06  0.681E-03    3.72       3.9  T
   6    -23.5230671 -0.104394E-06  0.264E-03    3.72      10.1  T
   7    -23.5230671 -0.452405E-07  0.110E-03    3.72      24.2  T
   8    -23.5230671 -0.341639E-08  0.484E-04    3.72      55.2  T
   9    -23.5230671 -0.992770E-09  0.255E-04    3.72     104.7  T
     SCC iter.                  ...        0 min,  0.004 sec
     gradient                   ...        0 min,  0.001 sec
 * total energy  :   -23.2016297 Eh     change        0.2307208E-03 Eh
   gradient norm :     0.0203433 Eh/α   predicted    -0.1224917E-03 (-153.09%)
   displ. norm   :     0.2651466 α      lambda       -0.9992163E-03
   maximum displ.:     0.2301267 α      in ANC's #1, #2, #7, ...

........................................................................
.............................. CYCLE   11 ..............................
........................................................................

 iter      E             dE          RMSdq      gap      omega  full diag
   1    -23.5261361 -0.235261E+02  0.392E-01    3.79       0.0  T
   2    -23.5261644 -0.283582E-04  0.190E-01    3.78       1.0  T
   3    -23.5261629  0.148584E-05  0.346E-02    3.77       1.0  T
   4    -23.5261714 -0.845820E-05  0.160E-02    3.77       1.7  T
   5    -23.5261718 -0.418644E-06  0.402E-03    3.77       6.6  T
   6    -23.5261718 -0.160754E-07  0.175E-03    3.77      15.3  T
   7    -23.5261718 -0.158912E-07  0.726E-04    3.77      36.8  T
   8    -23.5261719 -0.294342E-08  0.285E-04    3.77      93.9  T
     SCC iter.                  ...        0 min,  0.004 sec
     gradient                   ...        0 min,  0.001 sec
 * total energy  :   -23.2019644 Eh     change       -0.3346947E-03 Eh
   gradient norm :     0.0059637 Eh/α   predicted    -0.5347280E-03 (  59.77%)
   displ. norm   :     0.0495576 α      lambda       -0.7686803E-04
   maximum displ.:     0.0390670 α      in ANC's #1, #7, #2, ...

........................................................................
.............................. CYCLE   12 ..............................
........................................................................

 iter      E             dE          RMSdq      gap      omega  full diag
   1    -23.5258648 -0.235259E+02  0.852E-02    3.76       0.0  T
   2    -23.5258659 -0.110234E-05  0.409E-02    3.77       1.0  T
   3    -23.5258660 -0.148368E-06  0.526E-03    3.77       5.1  T
   4    -23.5258661 -0.784024E-07  0.302E-03    3.77       8.8  T
   5    -23.5258661 -0.289235E-07  0.861E-04    3.77      31.0  T
   6    -23.5258661 -0.348458E-08  0.276E-04    3.77      96.9  T
     SCC iter.                  ...        0 min,  0.002 sec
     gradient                   ...        0 min,  0.001 sec
 * total energy  :   -23.2020275 Eh     change       -0.6307267E-04 Eh
   gradient norm :     0.0046214 Eh/α   predicted    -0.3852704E-04 ( -38.92%)
   displ. norm   :     0.3056709 α      lambda       -0.2490721E-03
   maximum displ.:     0.2653372 α      in ANC's #1, #2, #26, ...

........................................................................
.............................. CYCLE   13 ..............................
........................................................................

 iter      E             dE          RMSdq      gap      omega  full diag
   1    -23.5238372 -0.235238E+02  0.480E-01    3.71       0.0  T
   2    -23.5238749 -0.376811E-04  0.225E-01    3.73       1.0  T
   3    -23.5238749  0.355383E-07  0.355E-02    3.73       1.0  T
   4    -23.5238834 -0.857861E-05  0.175E-02    3.73       1.5  T
   5    -23.5238841 -0.617567E-06  0.528E-03    3.73       5.1  T
   6    -23.5238841 -0.387946E-07  0.181E-03    3.73      14.8  T
   7    -23.5238841 -0.192384E-07  0.845E-04    3.73      31.6  T
   8    -23.5238841 -0.196334E-08  0.342E-04    3.73      78.2  T
     SCC iter.                  ...        0 min,  0.002 sec
     gradient                   ...        0 min,  0.001 sec
 * total energy  :   -23.2020733 Eh     change       -0.4576735E-04 Eh
   gradient norm :     0.0133102 Eh/α   predicted    -0.1361785E-03 ( 197.55%)
   displ. norm   :     0.1244076 α      lambda       -0.2627984E-03
   maximum displ.:     0.1091010 α      in ANC's #1, #2, #26, ...

........................................................................
.............................. CYCLE   14 ..............................
........................................................................

 iter      E             dE          RMSdq      gap      omega  full diag
   1    -23.5253820 -0.235254E+02  0.196E-01    3.76       0.0  T
   2    -23.5253895 -0.754267E-05  0.937E-02    3.75       1.0  T
   3    -23.5253896 -0.272227E-07  0.159E-02    3.75       1.7  T
   4    -23.5253912 -0.158298E-05  0.795E-03    3.75       3.4  T
   5    -23.5253913 -0.141067E-06  0.231E-03    3.75      11.6  T
   6    -23.5253913 -0.588095E-08  0.902E-04    3.75      29.6  T
   7    -23.5253913 -0.358970E-08  0.407E-04    3.75      65.6  T
     SCC iter.                  ...        0 min,  0.002 sec
     gradient                   ...        0 min,  0.001 sec
 * total energy  :   -23.2021808 Eh     change       -0.1075584E-03 Eh
   gradient norm :     0.0036249 Eh/α   predicted    -0.1334313E-03 (  24.05%)
   displ. norm   :     0.0905424 α      lambda       -0.7909083E-04
   maximum displ.:     0.0760230 α      in ANC's #1, #2, #26, ...

........................................................................
.............................. CYCLE   15 ..............................
........................................................................

 iter      E             dE          RMSdq      gap      omega  full diag
   1    -23.5253882 -0.235254E+02  0.132E-01    3.74       0.0  T
   2    -23.5253909 -0.261403E-05  0.622E-02    3.74       1.0  T
   3    -23.5253904  0.464148E-06  0.117E-02    3.74       2.3  T
   4    -23.5253916 -0.121772E-05  0.489E-03    3.74       5.5  T
   5    -23.5253916 -0.306109E-07  0.139E-03    3.74      19.2  T
   6    -23.5253916 -0.381110E-08  0.487E-04    3.74      54.8  T
   7    -23.5253916 -0.178543E-08  0.201E-04    3.74     132.7  T
     SCC iter.                  ...        0 min,  0.003 sec
     gradient                   ...        0 min,  0.001 sec
 * total energy  :   -23.2022557 Eh     change       -0.7482491E-04 Eh
   gradient norm :     0.0031240 Eh/α   predicted    -0.3987029E-04 ( -46.72%)
   displ. norm   :     0.5792601 α      lambda       -0.4606357E-03
   maximum displ.:     0.4815896 α      in ANC's #1, #2, #26, ...

........................................................................
.............................. CYCLE   16 ..............................
........................................................................

 iter      E             dE          RMSdq      gap      omega  full diag
   1    -23.5213093 -0.235213E+02  0.828E-01    3.66       0.0  T
   2    -23.5214421 -0.132826E-03  0.381E-01    3.69       1.0  T
   3    -23.5214165  0.256166E-04  0.810E-02    3.68       1.0  T
   4    -23.5214760 -0.595335E-04  0.317E-02    3.69       1.0  T
   5    -23.5214774 -0.136056E-05  0.103E-02    3.69       2.6  T
   6    -23.5214775 -0.101215E-06  0.365E-03    3.69       7.3  T
   7    -23.5214776 -0.873515E-07  0.163E-03    3.69      16.4  T
   8    -23.5214776 -0.867723E-08  0.675E-04    3.69      39.6  T
   9    -23.5214776 -0.139018E-08  0.379E-04    3.69      70.5  T
     SCC iter.                  ...        0 min,  0.002 sec
     gradient                   ...        0 min,  0.001 sec
 * total energy  :   -23.2019177 Eh     change        0.3379866E-03 Eh
   gradient norm :     0.0251289 Eh/α   predicted    -0.3076069E-03 (-191.01%)
   displ. norm   :     0.3172880 α      lambda       -0.1721531E-02
   maximum displ.:     0.2730465 α      in ANC's #1, #2, #26, ...

........................................................................
.............................. CYCLE   17 ..............................
........................................................................

 iter      E             dE          RMSdq      gap      omega  full diag
   1    -23.5259000 -0.235259E+02  0.457E-01    3.75       0.0  T
   2    -23.5259466 -0.466314E-04  0.217E-01    3.73       1.0  T
   3    -23.5259402  0.638557E-05  0.453E-02    3.73       1.0  T
   4    -23.5259580 -0.178239E-04  0.195E-02    3.73       1.4  T
   5    -23.5259587 -0.645141E-06  0.589E-03    3.73       4.5  T
   6    -23.5259587 -0.316009E-07  0.237E-03    3.73      11.3  T
   7    -23.5259587 -0.253986E-07  0.104E-03    3.73      25.7  T
   8    -23.5259587 -0.568627E-08  0.349E-04    3.73      76.6  T
   9    -23.5259587 -0.464155E-09  0.197E-04    3.73     135.9  T
     SCC iter.                  ...        0 min,  0.004 sec
     gradient                   ...        0 min,  0.002 sec
 * total energy  :   -23.2024718 Eh     change       -0.5541332E-03 Eh
   gradient norm :     0.0030444 Eh/α   predicted    -0.9474253E-03 (  70.97%)
   displ. norm   :     0.0870806 α      lambda       -0.8526142E-04
   maximum displ.:     0.0670625 α      in ANC's #1, #26, #2, ...

........................................................................
.............................. CYCLE   18 ..............................
........................................................................

 iter      E             dE          RMSdq      gap      omega  full diag
   1    -23.5258876 -0.235259E+02  0.136E-01    3.71       0.0  T
   2    -23.5258906 -0.296786E-05  0.639E-02    3.72       1.0  T
   3    -23.5258902  0.384541E-06  0.123E-02    3.72       2.2  T
   4    -23.5258914 -0.115823E-05  0.505E-03    3.72       5.3  T
   5    -23.5258914 -0.295699E-07  0.156E-03    3.72      17.1  T
   6    -23.5258914 -0.228028E-08  0.506E-04    3.72      52.8  T
   7    -23.5258914 -0.207949E-08  0.216E-04    3.72     124.0  T
     SCC iter.                  ...        0 min,  0.003 sec
     gradient                   ...        0 min,  0.001 sec
 * total energy  :   -23.2025543 Eh     change       -0.8247358E-04 Eh
   gradient norm :     0.0033644 Eh/α   predicted    -0.4295291E-04 ( -47.92%)
   displ. norm   :     0.7462410 α      lambda       -0.6702633E-03
   maximum displ.:     0.5679720 α      in ANC's #1, #26, #2, ...

........................................................................
.............................. CYCLE   19 ..............................
........................................................................

 iter      E             dE          RMSdq      gap      omega  full diag
   1    -23.5174987 -0.235175E+02  0.103E+00    3.62       0.0  T
   2    -23.5177970 -0.298314E-03  0.456E-01    3.66       1.0  T
   3    -23.5177628  0.341722E-04  0.110E-01    3.65       1.0  T
   4    -23.5178585 -0.956879E-04  0.430E-02    3.65       1.0  T
   5    -23.5178619 -0.337075E-05  0.144E-02    3.65       1.9  T
   6    -23.5178620 -0.125330E-06  0.577E-03    3.65       4.6  T
   7    -23.5178621 -0.141102E-06  0.269E-03    3.65       9.9  T
   8    -23.5178622 -0.378407E-07  0.115E-03    3.65      23.2  T
   9    -23.5178622 -0.810445E-09  0.642E-04    3.65      41.6  T
  10    -23.5178622 -0.188273E-08  0.152E-04    3.65     175.6  T
     SCC iter.                  ...        0 min,  0.004 sec
     gradient                   ...        0 min,  0.002 sec
 * total energy  :   -23.2001855 Eh     change        0.2368736E-02 Eh
   gradient norm :     0.0436855 Eh/α   predicted    -0.5217660E-03 (-122.03%)
   displ. norm   :     0.4587982 α      lambda       -0.6230084E-02
   maximum displ.:     0.3627559 α      in ANC's #1, #26, #2, ...

........................................................................
.............................. CYCLE   20 ..............................
........................................................................

 iter      E             dE          RMSdq      gap      omega  full diag
   1    -23.5254840 -0.235255E+02  0.622E-01    3.74       0.0  T
   2    -23.5255933 -0.109280E-03  0.295E-01    3.71       1.0  T
   3    -23.5255850  0.829822E-05  0.668E-02    3.71       1.0  T
   4    -23.5256185 -0.335485E-04  0.296E-02    3.70       1.0  T
   5    -23.5256202 -0.163972E-05  0.883E-03    3.70       3.0  T
   6    -23.5256202 -0.502708E-07  0.385E-03    3.70       6.9  T
   7    -23.5256203 -0.420269E-07  0.176E-03    3.70      15.2  T
   8    -23.5256203 -0.212282E-07  0.550E-04    3.70      48.6  T
   9    -23.5256203 -0.578630E-09  0.318E-04    3.70      84.0  T
     SCC iter.                  ...        0 min,  0.003 sec
     gradient                   ...        0 min,  0.001 sec
 * total energy  :   -23.2027638 Eh     change       -0.2578296E-02 Eh
   gradient norm :     0.0066747 Eh/α   predicted    -0.3770722E-02 (  46.25%)
   displ. norm   :     0.0304717 α      lambda       -0.7419275E-04
   maximum displ.:     0.0182793 α      in ANC's #26, #7, #9, ...
 * RMSD in coord.:     0.4640936 α      energy gain  -0.1325008E-01 Eh

generating ANC from model Hessian ...
Using Lindh-Hessian (1995)
 Shifting diagonal of input Hessian by    6.0898891262655581E-003
 Lowest  eigenvalues of input Hessian
    0.000000    0.000000    0.000000    0.000000    0.000000    0.000000
    0.010000    0.013564    0.016354    0.024102    0.027624    0.032465
    0.035335    0.051941    0.059124    0.070929    0.091180    0.098562
 Highest eigenvalues
    1.463393    1.619491    1.763012    1.899483    2.019511    2.099700


........................................................................
.............................. CYCLE   21 ..............................
........................................................................

 iter      E             dE          RMSdq      gap      omega  full diag
   1    -23.5262288 -0.235262E+02  0.420E-02    3.71       0.0  T
   2    -23.5262292 -0.451173E-06  0.216E-02    3.71       1.2  T
   3    -23.5262291  0.133876E-06  0.498E-03    3.71       5.4  T
   4    -23.5262293 -0.248897E-06  0.254E-03    3.71      10.5  T
   5    -23.5262294 -0.153991E-07  0.824E-04    3.71      32.4  T
   6    -23.5262294 -0.240696E-08  0.371E-04    3.71      72.0  T
     SCC iter.                  ...        0 min,  0.003 sec
     gradient                   ...        0 min,  0.001 sec
 * total energy  :   -23.2028204 Eh     change       -0.5656799E-04 Eh
   gradient norm :     0.0049727 Eh/α   predicted     0.0000000E+00 (-100.00%)
   displ. norm   :     0.0784636 α      lambda       -0.1088257E-03
   maximum displ.:     0.0592706 α      in ANC's #1, #2, #6, ...

........................................................................
.............................. CYCLE   22 ..............................
........................................................................

 iter      E             dE          RMSdq      gap      omega  full diag
   1    -23.5265641 -0.235266E+02  0.119E-01    3.71       0.0  T
   2    -23.5265664 -0.231888E-05  0.568E-02    3.71       1.0  T
   3    -23.5265654  0.103829E-05  0.141E-02    3.71       1.9  T
   4    -23.5265673 -0.188161E-05  0.493E-03    3.71       5.4  T
   5    -23.5265673 -0.143348E-07  0.111E-03    3.71      24.1  T
   6    -23.5265673 -0.215855E-08  0.478E-04    3.71      55.9  T
   7    -23.5265673 -0.155640E-08  0.209E-04    3.71     128.1  T
     SCC iter.                  ...        0 min,  0.003 sec
     gradient                   ...        0 min,  0.001 sec
 * total energy  :   -23.2029161 Eh     change       -0.9571433E-04 Eh
   gradient norm :     0.0033664 Eh/α   predicted    -0.5474632E-04 ( -42.80%)
   displ. norm   :     0.2304549 α      lambda       -0.2540352E-03
   maximum displ.:     0.1648974 α      in ANC's #1, #2, #6, ...

........................................................................
.............................. CYCLE   23 ..............................
........................................................................

 iter      E             dE          RMSdq      gap      omega  full diag
   1    -23.5264211 -0.235264E+02  0.330E-01    3.70       0.0  T
   2    -23.5264426 -0.214523E-04  0.156E-01    3.71       1.0  T
   3    -23.5264348  0.772629E-05  0.399E-02    3.71       1.0  T
   4    -23.5264495 -0.146842E-04  0.129E-02    3.71       2.1  T
   5    -23.5264496 -0.101347E-06  0.401E-03    3.71       6.7  T
   6    -23.5264496 -0.127252E-07  0.142E-03    3.71      18.8  T
   7    -23.5264496 -0.163221E-07  0.600E-04    3.71      44.6  T
   8    -23.5264496 -0.854843E-09  0.253E-04    3.71     105.6  T
     SCC iter.                  ...        0 min,  0.002 sec
     gradient                   ...        0 min,  0.001 sec
 * total energy  :   -23.2031112 Eh     change       -0.1950739E-03 Eh
   gradient norm :     0.0056651 Eh/α   predicted    -0.1337657E-03 ( -31.43%)
   displ. norm   :     0.1899016 α      lambda       -0.1565751E-03
   maximum displ.:     0.1543385 α      in ANC's #1, #2, #6, ...

........................................................................
.............................. CYCLE   24 ..............................
........................................................................

 iter      E             dE          RMSdq      gap      omega  full diag
   1    -23.5260376 -0.235260E+02  0.237E-01    3.70       0.0  T
   2    -23.5260505 -0.129093E-04  0.111E-01    3.71       1.0  T
   3    -23.5260451  0.535631E-05  0.323E-02    3.71       1.0  T
   4    -23.5260548 -0.967912E-05  0.984E-03    3.71       2.7  T
   5    -23.5260549 -0.517341E-07  0.303E-03    3.71       8.8  T
   6    -23.5260549 -0.876196E-08  0.112E-03    3.71      23.8  T
   7    -23.5260549 -0.103284E-07  0.431E-04    3.71      62.0  T
   8    -23.5260549 -0.546919E-09  0.165E-04    3.71     162.0  T
     SCC iter.                  ...        0 min,  0.003 sec
     gradient                   ...        0 min,  0.002 sec
 * total energy  :   -23.2032008 Eh     change       -0.8964621E-04 Eh
   gradient norm :     0.0098920 Eh/α   predicted    -0.8110954E-04 (  -9.52%)
   displ. norm   :     0.1130625 α      lambda       -0.2032156E-03
   maximum displ.:     0.1060548 α      in ANC's #1, #26, #2, ...

........................................................................
.............................. CYCLE   25 ..............................
........................................................................

 iter      E             dE          RMSdq      gap      omega  full diag
   1    -23.5269009 -0.235269E+02  0.114E-01    3.71       0.0  T
   2    -23.5269042 -0.329838E-05  0.564E-02    3.71       1.0  T
   3    -23.5269020  0.220634E-05  0.202E-02    3.72       1.3  T
   4    -23.5269055 -0.349762E-05  0.612E-03    3.72       4.4  T
   5    -23.5269055 -0.193984E-07  0.159E-03    3.72      16.8  T
   6    -23.5269055 -0.586810E-08  0.735E-04    3.72      36.4  T
   7    -23.5269055 -0.461487E-08  0.251E-04    3.72     106.3  T
     SCC iter.                  ...        0 min,  0.004 sec
     gradient                   ...        0 min,  0.001 sec
 * total energy  :   -23.2033539 Eh     change       -0.1530877E-03 Eh
   gradient norm :     0.0061427 Eh/α   predicted    -0.1029081E-03 ( -32.78%)
   displ. norm   :     0.2302035 α      lambda       -0.2131309E-03
   maximum displ.:     0.2129227 α      in ANC's #1, #2, #26, ...

........................................................................
.............................. CYCLE   26 ..............................
........................................................................

 iter      E             dE          RMSdq      gap      omega  full diag
   1    -23.5270981 -0.235271E+02  0.241E-01    3.71       0.0  T
   2    -23.5271109 -0.127884E-04  0.116E-01    3.72       1.0  T
   3    -23.5271074  0.347657E-05  0.302E-02    3.72       1.0  T
   4    -23.5271146 -0.722271E-05  0.115E-02    3.72       2.3  T
   5    -23.5271148 -0.130276E-06  0.291E-03    3.72       9.2  T
   6    -23.5271148 -0.134654E-07  0.109E-03    3.72      24.6  T
   7    -23.5271148 -0.100454E-07  0.410E-04    3.72      65.2  T
   8    -23.5271148 -0.360004E-09  0.160E-04    3.72     166.7  T
     SCC iter.                  ...        0 min,  0.008 sec
     gradient                   ...        0 min,  0.002 sec
 * total energy  :   -23.2035028 Eh     change       -0.1488370E-03 Eh
   gradient norm :     0.0066430 Eh/α   predicted    -0.1122123E-03 ( -24.61%)
   displ. norm   :     0.1560599 α      lambda       -0.1964289E-03
   maximum displ.:     0.1409124 α      in ANC's #1, #26, #9, ...

........................................................................
.............................. CYCLE   27 ..............................
........................................................................

 iter      E             dE          RMSdq      gap      omega  full diag
   1    -23.5284171 -0.235284E+02  0.151E-01    3.73       0.0  T
   2    -23.5284215 -0.432071E-05  0.766E-02    3.73       1.0  T
   3    -23.5284221 -0.662359E-06  0.122E-02    3.73       2.2  T
   4    -23.5284222 -0.695298E-07  0.676E-03    3.73       4.0  T
   5    -23.5284225 -0.281211E-06  0.141E-03    3.73      19.0  T
   6    -23.5284225 -0.806439E-08  0.532E-04    3.73      50.2  T
   7    -23.5284225 -0.131348E-08  0.214E-04    3.73     124.6  T
     SCC iter.                  ...        0 min,  0.006 sec
     gradient                   ...        0 min,  0.002 sec
 * total energy  :   -23.2036009 Eh     change       -0.9815182E-04 Eh
   gradient norm :     0.0030813 Eh/α   predicted    -0.1006060E-03 (   2.50%)
   displ. norm   :     0.3273996 α      lambda       -0.2001678E-03
   maximum displ.:     0.2968399 α      in ANC's #1, #2, #26, ...

........................................................................
.............................. CYCLE   28 ..............................
........................................................................

 iter      E             dE          RMSdq      gap      omega  full diag
   1    -23.5262938 -0.235263E+02  0.336E-01    3.73       0.0  T
   2    -23.5263217 -0.279202E-04  0.161E-01    3.74       1.0  T
   3    -23.5263220 -0.230708E-06  0.320E-02    3.73       1.0  T
   4    -23.5263278 -0.588647E-05  0.163E-02    3.74       1.6  T
   5    -23.5263286 -0.797208E-06  0.368E-03    3.74       7.3  T
   6    -23.5263287 -0.181121E-07  0.156E-03    3.74      17.2  T
   7    -23.5263287 -0.845129E-08  0.688E-04    3.74      38.8  T
   8    -23.5263287 -0.353608E-08  0.246E-04    3.74     108.8  T
     SCC iter.                  ...        0 min,  0.006 sec
     gradient                   ...        0 min,  0.002 sec
 * total energy  :   -23.2035310 Eh     change        0.6995114E-04 Eh
   gradient norm :     0.0127907 Eh/α   predicted    -0.1108151E-03 (-258.42%)
   displ. norm   :     0.2115887 α      lambda       -0.4213297E-03
   maximum displ.:     0.1963661 α      in ANC's #1, #2, #26, ...

........................................................................
.............................. CYCLE   29 ..............................
........................................................................

 iter      E             dE          RMSdq      gap      omega  full diag
   1    -23.5284127 -0.235284E+02  0.209E-01    3.74       0.0  T
   2    -23.5284245 -0.117436E-04  0.103E-01    3.74       1.0  T
   3    -23.5284233  0.119168E-05  0.238E-02    3.74       1.1  T
   4    -23.5284273 -0.398279E-05  0.113E-02    3.74       2.4  T
   5    -23.5284276 -0.324384E-06  0.258E-03    3.74      10.4  T
   6    -23.5284276 -0.934672E-08  0.117E-03    3.74      22.8  T
   7    -23.5284276 -0.537501E-08  0.455E-04    3.74      58.7  T
   8    -23.5284276 -0.158189E-08  0.141E-04    3.74     189.4  T
     SCC iter.                  ...        0 min,  0.006 sec
     gradient                   ...        0 min,  0.001 sec
 * total energy  :   -23.2036824 Eh     change       -0.1514229E-03 Eh
   gradient norm :     0.0018517 Eh/α   predicted    -0.2200981E-03 (  45.35%)
   displ. norm   :     0.0703587 α      lambda       -0.3547838E-04
   maximum displ.:     0.0482457 α      in ANC's #1, #2, #26, ...

........................................................................
.............................. CYCLE   30 ..............................
........................................................................

 iter      E             dE          RMSdq      gap      omega  full diag
   1    -23.5283876 -0.235284E+02  0.824E-02    3.74       0.0  T
   2    -23.5283889 -0.133871E-05  0.398E-02    3.74       1.0  T
   3    -23.5283892 -0.312141E-06  0.508E-03    3.74       5.3  T
   4    -23.5283892  0.145187E-07  0.277E-03    3.74       9.7  T
   5    -23.5283892 -0.476418E-07  0.612E-04    3.74      43.7  T
   6    -23.5283892 -0.969393E-09  0.264E-04    3.74     101.2  T
     SCC iter.                  ...        0 min,  0.007 sec
     gradient                   ...        0 min,  0.001 sec
 * total energy  :   -23.2037285 Eh     change       -0.4615139E-04 Eh
   gradient norm :     0.0020146 Eh/α   predicted    -0.1777817E-04 ( -61.48%)
   displ. norm   :     0.1638788 α      lambda       -0.9791634E-04
   maximum displ.:     0.1126628 α      in ANC's #1, #2, #26, ...

........................................................................
.............................. CYCLE   31 ..............................
........................................................................

 iter      E             dE          RMSdq      gap      omega  full diag
   1    -23.5277505 -0.235278E+02  0.186E-01    3.75       0.0  T
   2    -23.5277576 -0.710040E-05  0.902E-02    3.75       1.0  T
   3    -23.5277591 -0.143241E-05  0.124E-02    3.75       2.2  T
   4    -23.5277592 -0.135673E-06  0.749E-03    3.75       3.6  T
   5    -23.5277595 -0.306566E-06  0.137E-03    3.75      19.6  T
   6    -23.5277595 -0.111642E-08  0.625E-04    3.75      42.8  T
   7    -23.5277595 -0.719851E-10  0.298E-04    3.75      89.8  T
     SCC iter.                  ...        0 min,  0.004 sec
     gradient                   ...        0 min,  0.001 sec
 * total energy  :   -23.2037820 Eh     change       -0.5342312E-04 Eh
   gradient norm :     0.0049698 Eh/α   predicted    -0.5027237E-04 (  -5.90%)
   displ. norm   :     0.0251441 α      lambda       -0.3573346E-04
   maximum displ.:     0.0142720 α      in ANC's #1, #26, #2, ...

........................................................................
.............................. CYCLE   32 ..............................
........................................................................

 iter      E             dE          RMSdq      gap      omega  full diag
   1    -23.5281430 -0.235281E+02  0.255E-02    3.75       0.0  T
   2    -23.5281432 -0.210556E-06  0.133E-02    3.75       2.0  T
   3    -23.5281432  0.133599E-07  0.303E-03    3.75       8.8  T
   4    -23.5281432 -0.478689E-07  0.163E-03    3.75      16.4  T
   5    -23.5281432 -0.126604E-07  0.434E-04    3.75      61.5  T
   6    -23.5281432 -0.189711E-09  0.195E-04    3.75     136.8  T
     SCC iter.                  ...        0 min,  0.005 sec
     gradient                   ...        0 min,  0.001 sec
 * total energy  :   -23.2038082 Eh     change       -0.2618843E-04 Eh
   gradient norm :     0.0027721 Eh/α   predicted    -0.1787781E-04 ( -31.73%)
   displ. norm   :     0.0833408 α      lambda       -0.3656790E-04
   maximum displ.:     0.0422697 α      in ANC's #26, #1, #2, ...

........................................................................
.............................. CYCLE   33 ..............................
........................................................................

 iter      E             dE          RMSdq      gap      omega  full diag
   1    -23.5281961 -0.235282E+02  0.964E-02    3.75       0.0  T
   2    -23.5281979 -0.179503E-05  0.471E-02    3.75       1.0  T
   3    -23.5281983 -0.382158E-06  0.652E-03    3.75       4.1  T
   4    -23.5281983 -0.353965E-07  0.401E-03    3.75       6.7  T
   5    -23.5281984 -0.814621E-07  0.588E-04    3.75      45.5  T
   6    -23.5281984  0.340847E-10  0.262E-04    3.75     102.0  T
     SCC iter.                  ...        0 min,  0.003 sec
     gradient                   ...        0 min,  0.002 sec
 * total energy  :   -23.2038326 Eh     change       -0.2443237E-04 Eh
   gradient norm :     0.0022073 Eh/α   predicted    -0.1841090E-04 ( -24.65%)
   displ. norm   :     0.0582738 α      lambda       -0.1866471E-04
   maximum displ.:     0.0384623 α      in ANC's #1, #26, #3, ...

........................................................................
.............................. CYCLE   34 ..............................
........................................................................

 iter      E             dE          RMSdq      gap      omega  full diag
   1    -23.5283443 -0.235283E+02  0.642E-02    3.75       0.0  T
   2    -23.5283451 -0.868236E-06  0.316E-02    3.75       1.0  T
   3    -23.5283450  0.938795E-07  0.673E-03    3.75       4.0  T
   4    -23.5283454 -0.353726E-06  0.305E-03    3.75       8.8  T
   5    -23.5283454 -0.129993E-07  0.595E-04    3.75      44.9  T
   6    -23.5283454 -0.651745E-09  0.286E-04    3.75      93.6  T
     SCC iter.                  ...        0 min,  0.002 sec
     gradient                   ...        0 min,  0.002 sec
 * total energy  :   -23.2038460 Eh     change       -0.1344700E-04 Eh
   gradient norm :     0.0010464 Eh/α   predicted    -0.9363397E-05 ( -30.37%)
   displ. norm   :     0.1101364 α      lambda       -0.1131859E-04
   maximum displ.:     0.0832177 α      in ANC's #1, #26, #7, ...

........................................................................
.............................. CYCLE   35 ..............................
........................................................................

 iter      E             dE          RMSdq      gap      omega  full diag
   1    -23.5282719 -0.235283E+02  0.118E-01    3.75       0.0  T
   2    -23.5282747 -0.279926E-05  0.577E-02    3.75       1.0  T
   3    -23.5282750 -0.289159E-06  0.961E-03    3.75       2.8  T
   4    -23.5282754 -0.391470E-06  0.523E-03    3.75       5.1  T
   5    -23.5282755 -0.784715E-07  0.966E-04    3.75      27.7  T
   6    -23.5282755 -0.192219E-08  0.464E-04    3.75      57.7  T
     SCC iter.                  ...        0 min,  0.003 sec
     gradient                   ...        0 min,  0.002 sec
 * total energy  :   -23.2038499 Eh     change       -0.3893040E-05 Eh
   gradient norm :     0.0020411 Eh/α   predicted    -0.5690075E-05 (  46.16%)
   displ. norm   :     0.0180695 α      lambda       -0.1196306E-04
   maximum displ.:     0.0134137 α      in ANC's #2, #4, #7, ...

........................................................................
.............................. CYCLE   36 ..............................
........................................................................

 iter      E             dE          RMSdq      gap      omega  full diag
   1    -23.5287278 -0.235287E+02  0.239E-02    3.75       0.0  T
   2    -23.5287280 -0.185806E-06  0.124E-02    3.75       2.2  T
   3    -23.5287280 -0.205525E-07  0.232E-03    3.75      11.5  T
   4    -23.5287280 -0.633285E-08  0.131E-03    3.75      20.4  T
   5    -23.5287280 -0.145541E-07  0.373E-04    3.75      71.7  T
   6    -23.5287280  0.109836E-09  0.124E-04    3.75     215.3  T
     SCC iter.                  ...        0 min,  0.003 sec
     gradient                   ...        0 min,  0.002 sec
 * total energy  :   -23.2038528 Eh     change       -0.2825403E-05 Eh
   gradient norm :     0.0013549 Eh/α   predicted    -0.5983360E-05 ( 111.77%)
   displ. norm   :     0.0110348 α      lambda       -0.3907769E-05
   maximum displ.:     0.0054847 α      in ANC's #3, #4, #1, ...

........................................................................
.............................. CYCLE   37 ..............................
........................................................................

 iter      E             dE          RMSdq      gap      omega  full diag
   1    -23.5284476 -0.235284E+02  0.128E-02    3.75       0.0  T
   2    -23.5284477 -0.883907E-07  0.735E-03    3.75       3.6  T
   3    -23.5284476  0.757957E-07  0.352E-03    3.75       7.6  T
   4    -23.5284477 -0.111075E-06  0.824E-04    3.75      32.4  T
   5    -23.5284477 -0.143082E-08  0.230E-04    3.75     116.1  T
     SCC iter.                  ...        0 min,  0.002 sec
     gradient                   ...        0 min,  0.002 sec
 * total energy  :   -23.2038550 Eh     change       -0.2250879E-05 Eh
   gradient norm :     0.0005458 Eh/α   predicted    -0.1954966E-05 ( -13.15%)
   displ. norm   :     0.0101122 α      lambda       -0.6648249E-06
   maximum displ.:     0.0082505 α      in ANC's #1, #26, #2, ...

   *** GEOMETRY OPTIMIZATION CONVERGED AFTER 37 ITERATIONS ***

------------------------------------------------------------------------
 total energy gain   :        -0.0143412 Eh       -8.9993 kcal/mol
 total RMSD          :         0.8081770 a0        0.4277 Å
 total power (kW/mol):        -1.0176470 (step) -158.8618 (real)
------------------------------------------------------------------------

 ANCopt (total)                0 d,  0 h,  0 min,  0.237 sec
 optimizer setup                ...        0 min,  0.001 sec (  0.239%)
 model hessian                  ...        0 min,  0.004 sec (  1.684%)
 ANC generation                 ...        0 min,  0.001 sec (  0.411%)
 coordinate transformation      ...        0 min,  0.000 sec (  0.059%)
 single point calculation       ...        0 min,  0.207 sec ( 87.524%)
 optimization log               ...        0 min,  0.003 sec (  1.168%)
 hessian update                 ...        0 min,  0.001 sec (  0.605%)
 rational function              ...        0 min,  0.017 sec (  7.233%)

================
 final structure:
================
14
 xtb: 6.6.0 (conda-forge)
C           -1.66410016427524        0.77729233656809       -0.18382417800789
C           -1.16110448946558        0.66897642626556        1.10151462742085
C            0.08030800224943        0.09679731505672        1.31023622662352
C            0.82214564852750       -0.36807877501732        0.23610109180874
C            0.32149292562971       -0.26105164881805       -1.06455455177187
C           -0.92853323096513        0.31606720119768       -1.25860964654161
O            1.00345970082236       -0.69734836747553       -2.15086804404557
S            2.42634412812206       -1.11241914842923        0.46694083812816
H           -2.63260896812260        1.22236858661140       -0.35136290949347
H           -1.73021822663101        1.02767303320297        1.94500036792008
H            0.47505048199024        0.01102339211862        2.31272518451551
H           -1.29947551748354        0.38955045829006       -2.26828414431385
H            1.85296134695457       -1.07323461327524       -1.88550939100203
H            2.43417836264730       -0.99751619629583        1.79029452875958

 Bond Distances (Angstroems)
 ---------------------------
C1-C2=1.3845         C1-C6=1.3816         C1-H9=1.0790         C2-C1=1.3845         C2-C3=1.3828         C2-H10=1.0789        
C3-C2=1.3828         C3-C4=1.3857         C3-H11=1.0808        C4-C3=1.3857         C4-C5=1.3978         C4-S8=1.7835         
C5-C4=1.3978         C5-C6=1.3904         C5-O7=1.3548         C6-C1=1.3816         C6-C5=1.3904         C6-H12=1.0782        
O7-C5=1.3548         O7-H13=0.9661        S8-C4=1.7835         S8-H14=1.3284        H9-C1=1.0790         H10-C2=1.0789        
H11-C3=1.0808        H12-C6=1.0782        H13-O7=0.9661        H14-S8=1.3284        
 C  H  Rav=1.0792 sigma=0.0010  Rmin=1.0782  Rmax=1.0808     4
 C  C  Rav=1.3871 sigma=0.0055  Rmin=1.3816  Rmax=1.3978     6
 O  H  Rav=0.9661 sigma=0.0000  Rmin=0.9661  Rmax=0.9661     1
 O  C  Rav=1.3548 sigma=0.0000  Rmin=1.3548  Rmax=1.3548     1
 S  H  Rav=1.3284 sigma=0.0000  Rmin=1.3284  Rmax=1.3284     1
 S  C  Rav=1.7835 sigma=0.0000  Rmin=1.7835  Rmax=1.7835     1

 selected bond angles (degree)
 --------------------
C6-C1-C2=120.18                H9-C1-C2=120.17                H9-C1-C6=119.66                C3-C2-C1=119.91                
H10-C2-C1=120.54               H10-C2-C3=119.55               C4-C3-C2=120.16                H11-C3-C2=120.05               
H11-C3-C4=119.79               C5-C4-C3=120.25                S8-C4-C3=121.41                S8-C4-C5=118.33                
C6-C5-C4=118.92                O7-C5-C4=122.76                O7-C5-C6=118.31                C5-C6-C1=120.57                
H12-C6-C1=121.50               H12-C6-C5=117.92               H13-O7-C5=110.35               H14-S8-C4= 95.63               

 selected dihedral angles (degree)
 ---------------------------------
C3-C2-C1-C6=359.95            C3-C2-C1-H9=179.95            H10-C2-C1-C6=179.97           H10-C2-C1-H9=359.97           
C4-C3-C2-C1=  0.00            C4-C3-C2-H10=180.00           H11-C3-C2-C1=180.01           H11-C3-C2-H10=  0.00          
C5-C4-C3-C2=  0.04            C5-C4-C3-H11=180.05           S8-C4-C3-C2=180.03            S8-C4-C3-H11=  0.04           
C6-C5-C4-C3=359.93            C6-C5-C4-S8=179.94            O7-C5-C4-C3=179.95            O7-C5-C4-S8=359.96            
C5-C6-C1-C2=  0.00            C5-C6-C1-H9=180.02            H12-C6-C1-C2=180.00           H12-C6-C1-H9=  0.00           
C1-C6-C5-C4=  0.04            C1-C6-C5-O7=180.02            H12-C6-C5-C4=180.06           H12-C6-C5-O7=  0.04           
H13-O7-C5-C4=359.83           H13-O7-C5-C6=179.85           H14-S8-C4-C3=  0.65           H14-S8-C4-C5=180.63           
           -------------------------------------------------
          |                Final Singlepoint                |
           -------------------------------------------------

          ...................................................
          :                      SETUP                      :
          :.................................................:
          :  # basis functions                  44          :
          :  # atomic orbitals                  43          :
          :  # shells                           23          :
          :  # electrons                        42          :
          :  max. iterations                   250          :
          :  Hamiltonian                  GFN2-xTB          :
          :  restarted?                      false          :
          :  GBSA solvation                  false          :
          :  PC potential                    false          :
          :  electronic temp.          300.0000000     K    :
          :  accuracy                    1.0000000          :
          :  -> integral cutoff          0.2500000E+02      :
          :  -> integral neglect         0.1000000E-07      :
          :  -> SCF convergence          0.1000000E-05 Eh   :
          :  -> wf. convergence          0.1000000E-03 e    :
          :  Broyden damping             0.4000000          :
          ...................................................

 iter      E             dE          RMSdq      gap      omega  full diag
   1    -23.5284477 -0.235284E+02  0.118E-04    3.75       0.0  T
   2    -23.5284477 -0.347562E-10  0.641E-05    3.75     416.7  T
   3    -23.5284477 -0.214406E-10  0.432E-05    3.75     618.0  T

   *** convergence criteria satisfied after 3 iterations ***

         #    Occupation            Energy/Eh            Energy/eV
      -------------------------------------------------------------
         1        2.0000           -0.7285951             -19.8261
       ...           ...                  ...                  ...
        15        2.0000           -0.4809878             -13.0883
        16        2.0000           -0.4732299             -12.8772
        17        2.0000           -0.4445236             -12.0961
        18        2.0000           -0.4335501             -11.7975
        19        2.0000           -0.4333682             -11.7925
        20        2.0000           -0.3991785             -10.8622
        21        2.0000           -0.3732208             -10.1559 (HOMO)
        22                         -0.2352965              -6.4027 (LUMO)
        23                         -0.2238968              -6.0925
        24                         -0.2143816              -5.8336
        25                         -0.1325368              -3.6065
        26                         -0.1068243              -2.9068
       ...                                ...                  ...
        43                          0.6556477              17.8411
      -------------------------------------------------------------
                  HL-Gap            0.1379243 Eh            3.7531 eV
             Fermi-level           -0.3042587 Eh           -8.2793 eV

 SCC (total)                   0 d,  0 h,  0 min,  0.003 sec
 SCC setup                      ...        0 min,  0.000 sec (  3.527%)
 Dispersion                     ...        0 min,  0.000 sec (  4.919%)
 classical contributions        ...        0 min,  0.000 sec (  1.798%)
 integral evaluation            ...        0 min,  0.001 sec ( 21.412%)
 iterations                     ...        0 min,  0.001 sec ( 35.116%)
 molecular gradient             ...        0 min,  0.001 sec ( 31.483%)
 printout                       ...        0 min,  0.000 sec (  1.452%)

         :::::::::::::::::::::::::::::::::::::::::::::::::::::
         ::                     SUMMARY                     ::
         :::::::::::::::::::::::::::::::::::::::::::::::::::::
         :: total energy             -23.203855001722 Eh    ::
         :: gradient norm              0.000548091844 Eh/a0 ::
         :: HOMO-LUMO gap              3.753111308103 eV    ::
         ::.................................................::
         :: SCC energy               -23.528447729781 Eh    ::
         :: -> isotropic ES            0.022211990325 Eh    ::
         :: -> anisotropic ES          0.002876978569 Eh    ::
         :: -> anisotropic XC          0.008877892395 Eh    ::
         :: -> dispersion             -0.012049890930 Eh    ::
         :: repulsion energy           0.324568803561 Eh    ::
         :: add. restraining           0.000000000000 Eh    ::
         :: total charge               0.000000000000 e     ::
         :::::::::::::::::::::::::::::::::::::::::::::::::::::

           -------------------------------------------------
          |                Property Printout                |
           -------------------------------------------------

    * Orbital Energies and Occupations

         #    Occupation            Energy/Eh            Energy/eV
      -------------------------------------------------------------
         1        2.0000           -0.7285951             -19.8261
       ...           ...                  ...                  ...
         9        2.0000           -0.5436039             -14.7922
        10        2.0000           -0.5321049             -14.4793
        11        2.0000           -0.5207061             -14.1691
        12        2.0000           -0.5092157             -13.8565
        13        2.0000           -0.4917752             -13.3819
        14        2.0000           -0.4878303             -13.2745
        15        2.0000           -0.4809878             -13.0883
        16        2.0000           -0.4732299             -12.8772
        17        2.0000           -0.4445236             -12.0961
        18        2.0000           -0.4335501             -11.7975
        19        2.0000           -0.4333682             -11.7925
        20        2.0000           -0.3991785             -10.8622
        21        2.0000           -0.3732208             -10.1559 (HOMO)
        22                         -0.2352965              -6.4027 (LUMO)
        23                         -0.2238968              -6.0925
        24                         -0.2143816              -5.8336
        25                         -0.1325368              -3.6065
        26                         -0.1068243              -2.9068
        27                         -0.0294513              -0.8014
        28                         -0.0243173              -0.6617
        29                          0.0304098               0.8275
        30                          0.0748600               2.0370
        31                          0.1348747               3.6701
        32                          0.1443796               3.9288
       ...                                ...                  ...
        43                          0.6556477              17.8411
      -------------------------------------------------------------
                  HL-Gap            0.1379243 Eh            3.7531 eV
             Fermi-level           -0.3042587 Eh           -8.2793 eV

     #   Z          covCN         q      C6AA      α(0)
     1   6 C        2.919    -0.034    28.843     8.807
     2   6 C        2.920    -0.041    29.023     8.835
     3   6 C        2.949    -0.042    29.048     8.840
     4   6 C        2.966     0.018    27.613     8.619
     5   6 C        2.886     0.143    24.887     8.179
     6   6 C        2.921    -0.054    29.338     8.882
     7   8 O        1.660    -0.379    20.441     6.103
     8  16 S        1.970    -0.263   152.375    20.776
     9   1 H        0.926     0.042     2.425     2.435
    10   1 H        0.926     0.039     2.464     2.455
    11   1 H        0.926     0.034     2.536     2.491
    12   1 H        0.926     0.057     2.236     2.339
    13   1 H        0.805     0.314     0.681     1.297
    14   1 H        0.923     0.168     1.279     1.768

 Mol. C6AA /au·bohr⁶  :       3219.958698
 Mol. C8AA /au·bohr⁸  :      93442.387329
 Mol. α(0) /au        :         91.824696


Wiberg/Mayer (AO) data.
largest (>0.10) Wiberg bond orders for each atom

 ---------------------------------------------------------------------------
     #   Z sym  total        # sym  WBO       # sym  WBO       # sym  WBO
 ---------------------------------------------------------------------------
     1   6 C    3.992 --     6 C    1.448     2 C    1.427     9 H    0.970
     2   6 C    3.991 --     3 C    1.437     1 C    1.427    10 H    0.969
     3   6 C    3.989 --     2 C    1.437     4 C    1.406    11 H    0.966
                             6 C    0.102
     4   6 C    3.952 --     3 C    1.406     5 C    1.328     8 S    1.024
     5   6 C    3.943 --     6 C    1.368     4 C    1.328     7 O    1.088
     6   6 C    3.987 --     1 C    1.448     5 C    1.368    12 H    0.966
                             3 C    0.102
     7   8 O    2.142 --     5 C    1.088    13 H    0.876
     8  16 S    2.152 --     4 C    1.024    14 H    0.952
     9   1 H    0.997 --     1 C    0.970
    10   1 H    0.998 --     2 C    0.969
    11   1 H    0.999 --     3 C    0.966
    12   1 H    0.997 --     6 C    0.966
    13   1 H    0.902 --     7 O    0.876
    14   1 H    0.972 --     8 S    0.952
 ---------------------------------------------------------------------------

Topologies differ in total number of bonds
Writing topology from bond orders to xtbtopo.mol

molecular dipole:
                 x           y           z       tot (Debye)
 q only:       -0.100       0.090       0.445
   full:       -0.090       0.120       0.805       2.081
molecular quadrupole (traceless):
                xx          xy          yy          xz          yz          zz
 q only:        0.791      -1.147      -1.259       1.050      -0.306       0.469
  q+dip:        0.547      -1.835      -2.985       2.697      -0.695       2.439
   full:        0.389      -1.091      -1.920       2.519      -0.861       1.531

           -------------------------------------------------
          |                Geometry Summary                 |
           -------------------------------------------------

      molecular mass/u    :      126.1762522
   center of mass at/Å    :        0.4958386      -0.2494046      -0.1283384
  moments of inertia/u·Å² :        0.1701400E+03   0.3243832E+03   0.4945227E+03
rotational constants/cm⁻¹ :        0.9908094E-01   0.5196826E-01   0.3408869E-01

 * 13 selected distances

     #   Z          #   Z                                           value/Å
     1   6 C        2   6 C                                       1.3844974
     2   6 C        3   6 C                                       1.3827722
     3   6 C        4   6 C                                       1.3857126
     4   6 C        5   6 C                                       1.3977888 (max)
     1   6 C        6   6 C                                       1.3816481
     5   6 C        6   6 C                                       1.3904277
     5   6 C        7   8 O                                       1.3548103
     1   6 C        9   1 H                                       1.0789678
     2   6 C       10   1 H                                       1.0788986
     3   6 C       11   1 H                                       1.0808160
     6   6 C       12   1 H                                       1.0781655
     7   8 O       13   1 H                                       0.9661050 (min)
     8  16 S       14   1 H                                       1.3283559

 * 5 distinct bonds (by element types)

   Z      Z             #   av. dist./Å        max./Å        min./Å
   1 H    6 C           4     1.0792120     1.0808160     1.0781655
   6 C    6 C           6     1.3871412     1.3977888     1.3816481
   1 H    8 O           1     0.9661050     0.9661050     0.9661050
   6 C    8 O           1     1.3548103     1.3548103     1.3548103
   1 H   16 S           1     1.3283559     1.3283559     1.3283559


optimized geometry written to: xtbopt.xyz


           -------------------------------------------------
          | TOTAL ENERGY              -23.203855001722 Eh   |
          | GRADIENT NORM               0.000548091844 Eh/α |
          | HOMO-LUMO GAP               3.753111308103 eV   |
           -------------------------------------------------

------------------------------------------------------------------------
 * finished run on 2024/09/17 at 17:34:27.634     
------------------------------------------------------------------------
 total:
 * wall-time:     0 d,  0 h,  0 min,  0.535 sec
 *  cpu-time:     0 d,  0 h,  0 min,  3.253 sec
 * ratio c/w:     6.075 speedup
 SCF:
 * wall-time:     0 d,  0 h,  0 min,  0.035 sec
 *  cpu-time:     0 d,  0 h,  0 min,  0.191 sec
 * ratio c/w:     5.422 speedup
 ANC optimizer:
 * wall-time:     0 d,  0 h,  0 min,  0.242 sec
 *  cpu-time:     0 d,  0 h,  0 min,  1.537 sec
 * ratio c/w:     6.353 speedup

