      -----------------------------------------------------------      
     |                   =====================                   |     
     |                           x T B                           |     
     |                   =====================                   |     
     |                         S. Grimme                         |     
     |          Mulliken Center for Theoretical Chemistry        |     
     |                    University of Bonn                     |     
      -----------------------------------------------------------      

   * xtb version 6.6.0 (conda-forge) compiled by 'runner@Mac-1676020848589.local' on 2023-02-10

   xtb is free software: you can redistribute it and/or modify it under
   the terms of the GNU Lesser General Public License as published by
   the Free Software Foundation, either version 3 of the License, or
   (at your option) any later version.
   
   xtb is distributed in the hope that it will be useful,
   but WITHOUT ANY WARRANTY; without even the implied warranty of
   MERCHANTABILITY or FITNESS FOR A PARTICULAR PURPOSE.  See the
   GNU Lesser General Public License for more details.
   
   Cite this work as:
   * C. Bannwarth, E. Caldeweyher, S. Ehlert, A. Hansen, P. Pracht,
     J. Seibert, S. Spicher, S. Grimme, WIREs Comput. Mol. Sci., 2020, 11,
     e01493. DOI: 10.1002/wcms.1493
   
   for GFN2-xTB:
   * C. Bannwarth, S. Ehlert and S. Grimme., J. Chem. Theory Comput., 2019,
     15, 1652-1671. DOI: 10.1021/acs.jctc.8b01176
   for GFN1-xTB:
   * S. Grimme, C. Bannwarth, P. Shushkov, J. Chem. Theory Comput., 2017,
     13, 1989-2009. DOI: 10.1021/acs.jctc.7b00118
   for GFN0-xTB:
   * P. Pracht, E. Caldeweyher, S. Ehlert, S. Grimme, ChemRxiv, 2019, preprint.
     DOI: 10.26434/chemrxiv.8326202.v1
   for GFN-FF:
   * S. Spicher and S. Grimme, Angew. Chem. Int. Ed., 2020, 59, 15665-15673.
     DOI: 10.1002/anie.202004239
   
   for ALPB and GBSA implicit solvation:
   * S. Ehlert, M. Stahn, S. Spicher, S. Grimme, J. Chem. Theory Comput.,
     2021, 17, 4250-4261. DOI: 10.1021/acs.jctc.1c00471
   
   for DFT-D4:
   * E. Caldeweyher, C. Bannwarth and S. Grimme, J. Chem. Phys., 2017,
     147, 034112. DOI: 10.1063/1.4993215
   * E. Caldeweyher, S. Ehlert, A. Hansen, H. Neugebauer, S. Spicher,
     C. Bannwarth and S. Grimme, J. Chem. Phys., 2019, 150, 154122.
     DOI: 10.1063/1.5090222
   * E. Caldeweyher, J.-M. Mewes, S. Ehlert and S. Grimme, Phys. Chem. Chem. Phys.
     2020, 22, 8499-8512. DOI: 10.1039/D0CP00502A
   
   for sTDA-xTB:
   * S. Grimme and C. Bannwarth, J. Chem. Phys., 2016, 145, 054103.
     DOI: 10.1063/1.4959605
   
   in the mass-spec context:
   * V. Asgeirsson, C. Bauer and S. Grimme, Chem. Sci., 2017, 8, 4879.
     DOI: 10.1039/c7sc00601b
   * J. Koopman and S. Grimme, ACS Omega 2019, 4, 12, 15120-15133.
     DOI: 10.1021/acsomega.9b02011
   
   for metadynamics refer to:
   * S. Grimme, J. Chem. Theory Comput., 2019, 155, 2847-2862
     DOI: 10.1021/acs.jctc.9b00143
   
   for SPH calculations refer to:
   * S. Spicher and S. Grimme, J. Chem. Theory Comput., 2021, 17, 1701-1714
     DOI: 10.1021/acs.jctc.0c01306
   
   with help from (in alphabetical order)
   P. Atkinson, C. Bannwarth, F. Bohle, G. Brandenburg, E. Caldeweyher
   M. Checinski, S. Dohm, S. Ehlert, S. Ehrlich, I. Gerasimov, C. Hölzer
   A. Katbashev, J. Koopman, C. Lavigne, S. Lehtola, F. März, M. Müller,
   F. Musil, H. Neugebauer, J. Pisarek, C. Plett, P. Pracht, F. Pultar,
   J. Seibert, P. Shushkov, S. Spicher, M. Stahn, M. Steiner, T. Strunk,
   J. Stückrath, T. Rose, and J. Unsleber
   
 * started run on 2024/09/17 at 17:31:51.856     

           -------------------------------------------------
          |                Calculation Setup                |
           -------------------------------------------------

          program call               : xtb 4-Mercaptophenol.xyz --opt --chrg 0 --gfn2
          coordinate file            : 4-Mercaptophenol.xyz
          omp threads                :                     8

   ID    Z sym.   atoms
    1    6 C      1-6
    2    8 O      7
    3   16 S      8
    4    1 H      9-14

           -------------------------------------------------
          |                 G F N 2 - x T B                 |
           -------------------------------------------------

        Reference                      10.1021/acs.jctc.8b01176
      * Hamiltonian:
        H0-scaling (s, p, d)           1.850000    2.230000    2.230000
        zeta-weighting                 0.500000
      * Dispersion:
        s8                             2.700000
        a1                             0.520000
        a2                             5.000000
        s9                             5.000000
      * Repulsion:
        kExp                           1.500000    1.000000
        rExp                           1.000000
      * Coulomb:
        alpha                          2.000000
        third order                    shell-resolved
        anisotropic                    true
        a3                             3.000000
        a5                             4.000000
        cn-shift                       1.200000
        cn-exp                         4.000000
        max-rad                        5.000000

q/qsh data taken from xtbrestart
CAMM data taken from xtbrestart

          ...................................................
          :                      SETUP                      :
          :.................................................:
          :  # basis functions                  44          :
          :  # atomic orbitals                  43          :
          :  # shells                           23          :
          :  # electrons                        42          :
          :  max. iterations                   250          :
          :  Hamiltonian                  GFN2-xTB          :
          :  restarted?                       true          :
          :  GBSA solvation                  false          :
          :  PC potential                    false          :
          :  electronic temp.          300.0000000     K    :
          :  accuracy                    1.0000000          :
          :  -> integral cutoff          0.2500000E+02      :
          :  -> integral neglect         0.1000000E-07      :
          :  -> SCF convergence          0.1000000E-05 Eh   :
          :  -> wf. convergence          0.1000000E-03 e    :
          :  Broyden damping             0.4000000          :
          ...................................................

 iter      E             dE          RMSdq      gap      omega  full diag
   1    -23.4766586 -0.234767E+02  0.448E+00    3.74       0.0  T
   2    -23.4803344 -0.367577E-02  0.253E+00    3.65       1.0  T
   3    -23.4737343  0.660007E-02  0.833E-01    3.54       1.0  T
   4    -23.4822508 -0.851643E-02  0.211E-01    3.49       1.0  T
   5    -23.4822640 -0.131910E-04  0.940E-02    3.50       1.0  T
   6    -23.4823551 -0.911174E-04  0.322E-02    3.50       1.0  T
   7    -23.4823568 -0.172775E-05  0.153E-02    3.51       1.8  T
   8    -23.4823570 -0.158782E-06  0.750E-03    3.51       3.6  T
   9    -23.4823575 -0.492896E-06  0.193E-03    3.51      13.8  T
  10    -23.4823575 -0.677376E-08  0.720E-04    3.51      37.1  T
  11    -23.4823575 -0.890523E-10  0.305E-04    3.51      87.6  T

   *** convergence criteria satisfied after 11 iterations ***

         #    Occupation            Energy/Eh            Energy/eV
      -------------------------------------------------------------
         1        2.0000           -0.7088016             -19.2875
       ...           ...                  ...                  ...
        15        2.0000           -0.4857815             -13.2188
        16        2.0000           -0.4609972             -12.5444
        17        2.0000           -0.4461326             -12.1399
        18        2.0000           -0.4375161             -11.9054
        19        2.0000           -0.4172199             -11.3531
        20        2.0000           -0.3947694             -10.7422
        21        2.0000           -0.3712518             -10.1023 (HOMO)
        22                         -0.2423927              -6.5958 (LUMO)
        23                         -0.2410014              -6.5580
        24                         -0.2017319              -5.4894
        25                         -0.1322795              -3.5995
        26                         -0.1142543              -3.1090
       ...                                ...                  ...
        43                          0.6089314              16.5699
      -------------------------------------------------------------
                  HL-Gap            0.1288591 Eh            3.5064 eV
             Fermi-level           -0.3068223 Eh           -8.3491 eV

 SCC (total)                   0 d,  0 h,  0 min,  0.030 sec
 SCC setup                      ...        0 min,  0.001 sec (  3.619%)
 Dispersion                     ...        0 min,  0.001 sec (  2.216%)
 classical contributions        ...        0 min,  0.000 sec (  0.950%)
 integral evaluation            ...        0 min,  0.003 sec ( 10.693%)
 iterations                     ...        0 min,  0.021 sec ( 70.419%)
 molecular gradient             ...        0 min,  0.003 sec ( 10.115%)
 printout                       ...        0 min,  0.001 sec (  1.921%)

         :::::::::::::::::::::::::::::::::::::::::::::::::::::
         ::                     SUMMARY                     ::
         :::::::::::::::::::::::::::::::::::::::::::::::::::::
         :: total energy             -23.189898439293 Eh    ::
         :: gradient norm              0.067443764273 Eh/a0 ::
         :: HOMO-LUMO gap              3.506434316136 eV    ::
         ::.................................................::
         :: SCC energy               -23.482357469134 Eh    ::
         :: -> isotropic ES            0.025336103869 Eh    ::
         :: -> anisotropic ES          0.002383440354 Eh    ::
         :: -> anisotropic XC          0.010241794182 Eh    ::
         :: -> dispersion             -0.011635668274 Eh    ::
         :: repulsion energy           0.292447747502 Eh    ::
         :: add. restraining           0.000000000000 Eh    ::
         :: total charge              -0.000000000000 e     ::
         :::::::::::::::::::::::::::::::::::::::::::::::::::::

      ----------------------------------------------------------- 
     |                   =====================                   |
     |                        A N C O P T                        |
     |                   =====================                   |
     |               Approximate Normal Coordinate               |
     |                Rational Function Optimizer                |
      ----------------------------------------------------------- 

          ...................................................
          :                      SETUP                      :
          :.................................................:
          :   optimization level            normal          :
          :   max. optcycles                   200          :
          :   ANC micro-cycles                  20          :
          :   degrees of freedom                36          :
          :.................................................:
          :   RF solver                   davidson          :
          :   write xtbopt.log                true          :
          :   linear?                        false          :
          :   energy convergence         0.5000000E-05 Eh   :
          :   grad. convergence          0.1000000E-02 Eh/α :
          :   maxmium RF displ.          1.0000000          :
          :   Hlow (freq-cutoff)         0.1000000E-01      :
          :   Hmax (freq-cutoff)         5.0000000          :
          :   S6 in model hess.         20.0000000          :
          ...................................................

generating ANC from model Hessian ...
Using Lindh-Hessian (1995)
 Shifting diagonal of input Hessian by    6.7216477406007481E-003
 Lowest  eigenvalues of input Hessian
    0.000000    0.000000    0.000000    0.000000    0.000000    0.000000
    0.010000    0.010145    0.017472    0.020628    0.023653    0.030870
    0.036523    0.047310    0.052566    0.069819    0.079488    0.089639
 Highest eigenvalues
    1.420251    1.531344    1.660654    1.814904    1.921525    1.994418


........................................................................
.............................. CYCLE    1 ..............................
........................................................................

 iter      E             dE          RMSdq      gap      omega  full diag
   1    -23.4823575 -0.234824E+02  0.132E-04    3.51       0.0  T
   2    -23.4823575 -0.646949E-11  0.836E-05    3.51     319.8  T
   3    -23.4823575  0.715872E-11  0.483E-05    3.51     553.1  T
     SCC iter.                  ...        0 min,  0.002 sec
     gradient                   ...        0 min,  0.001 sec
 * total energy  :   -23.1898984 Eh     change       -0.5620286E-09 Eh
   gradient norm :     0.0674438 Eh/α   predicted     0.0000000E+00 (-100.00%)
   displ. norm   :     0.2613357 α      lambda       -0.1182040E-01
   maximum displ.:     0.1568549 α      in ANC's #12, #19, #15, ...

........................................................................
.............................. CYCLE    2 ..............................
........................................................................

 iter      E             dE          RMSdq      gap      omega  full diag
   1    -23.5135731 -0.235136E+02  0.295E-01    3.61       0.0  T
   2    -23.5136796 -0.106514E-03  0.175E-01    3.59       1.0  T
   3    -23.5136651  0.145131E-04  0.839E-02    3.56       1.0  T
   4    -23.5136976 -0.325153E-04  0.287E-02    3.56       1.0  T
   5    -23.5137004 -0.286335E-05  0.796E-03    3.57       3.4  T
   6    -23.5137008 -0.377315E-06  0.402E-03    3.57       6.6  T
   7    -23.5137008 -0.260058E-07  0.178E-03    3.57      15.0  T
   8    -23.5137009 -0.303553E-08  0.644E-04    3.57      41.5  T
   9    -23.5137009 -0.183520E-08  0.381E-04    3.57      70.2  T
     SCC iter.                  ...        0 min,  0.006 sec
     gradient                   ...        0 min,  0.001 sec
 * total energy  :   -23.1979995 Eh     change       -0.8101062E-02 Eh
   gradient norm :     0.0294692 Eh/α   predicted    -0.6313852E-02 ( -22.06%)
   displ. norm   :     0.1993449 α      lambda       -0.3530335E-02
   maximum displ.:     0.1073900 α      in ANC's #12, #19, #6, ...

........................................................................
.............................. CYCLE    3 ..............................
........................................................................

 iter      E             dE          RMSdq      gap      omega  full diag
   1    -23.5274925 -0.235275E+02  0.195E-01    3.61       0.0  T
   2    -23.5275559 -0.634186E-04  0.116E-01    3.62       1.0  T
   3    -23.5275518  0.411146E-05  0.557E-02    3.62       1.0  T
   4    -23.5275659 -0.141087E-04  0.212E-02    3.61       1.3  T
   5    -23.5275681 -0.220868E-05  0.626E-03    3.62       4.3  T
   6    -23.5275682 -0.919552E-07  0.353E-03    3.62       7.6  T
   7    -23.5275682 -0.479063E-07  0.151E-03    3.62      17.7  T
   8    -23.5275682 -0.153767E-08  0.537E-04    3.62      49.8  T
   9    -23.5275682 -0.882331E-09  0.309E-04    3.62      86.4  T
     SCC iter.                  ...        0 min,  0.004 sec
     gradient                   ...        0 min,  0.001 sec
 * total energy  :   -23.1996574 Eh     change       -0.1657857E-02 Eh
   gradient norm :     0.0064342 Eh/α   predicted    -0.1835313E-02 (  10.70%)
   displ. norm   :     0.0729880 α      lambda       -0.2250602E-03
   maximum displ.:     0.0380974 α      in ANC's #7, #3, #1, ...

........................................................................
.............................. CYCLE    4 ..............................
........................................................................

 iter      E             dE          RMSdq      gap      omega  full diag
   1    -23.5250083 -0.235250E+02  0.606E-02    3.61       0.0  T
   2    -23.5250099 -0.159381E-05  0.329E-02    3.60       1.0  T
   3    -23.5250085  0.139270E-05  0.153E-02    3.60       1.7  T
   4    -23.5250107 -0.213532E-05  0.646E-03    3.60       4.1  T
   5    -23.5250108 -0.128069E-06  0.239E-03    3.60      11.2  T
   6    -23.5250108 -0.274795E-07  0.104E-03    3.60      25.8  T
   7    -23.5250108 -0.258539E-08  0.355E-04    3.60      75.3  T
   8    -23.5250108 -0.294413E-10  0.154E-04    3.60     173.8  T
     SCC iter.                  ...        0 min,  0.003 sec
     gradient                   ...        0 min,  0.001 sec
 * total energy  :   -23.1997842 Eh     change       -0.1268282E-03 Eh
   gradient norm :     0.0036409 Eh/α   predicted    -0.1131311E-03 ( -10.80%)
   displ. norm   :     0.0417109 α      lambda       -0.4128230E-04
   maximum displ.:     0.0307953 α      in ANC's #1, #7, #2, ...

........................................................................
.............................. CYCLE    5 ..............................
........................................................................

 iter      E             dE          RMSdq      gap      omega  full diag
   1    -23.5241025 -0.235241E+02  0.366E-02    3.60       0.0  T
   2    -23.5241031 -0.586729E-06  0.193E-02    3.60       1.4  T
   3    -23.5241027  0.449357E-06  0.809E-03    3.60       3.3  T
   4    -23.5241034 -0.701558E-06  0.225E-03    3.60      11.9  T
   5    -23.5241034 -0.387521E-08  0.114E-03    3.60      23.4  T
   6    -23.5241034 -0.919409E-08  0.275E-04    3.60      97.1  T
   7    -23.5241034 -0.225299E-09  0.805E-05    3.60     332.1  T
     SCC iter.                  ...        0 min,  0.002 sec
     gradient                   ...        0 min,  0.001 sec
 * total energy  :   -23.1998104 Eh     change       -0.2621058E-04 Eh
   gradient norm :     0.0019686 Eh/α   predicted    -0.2067841E-04 ( -21.11%)
   displ. norm   :     0.0447596 α      lambda       -0.1177144E-04
   maximum displ.:     0.0401404 α      in ANC's #1, #7, #5, ...

........................................................................
.............................. CYCLE    6 ..............................
........................................................................

 iter      E             dE          RMSdq      gap      omega  full diag
   1    -23.5243497 -0.235243E+02  0.521E-02    3.60       0.0  T
   2    -23.5243503 -0.657425E-06  0.255E-02    3.60       1.0  T
   3    -23.5243499  0.389521E-06  0.741E-03    3.60       3.6  T
   4    -23.5243505 -0.623336E-06  0.231E-03    3.60      11.6  T
   5    -23.5243505 -0.109676E-08  0.111E-03    3.60      24.1  T
   6    -23.5243506 -0.835993E-08  0.271E-04    3.60      98.7  T
   7    -23.5243506 -0.221778E-09  0.775E-05    3.60     345.0  T
     SCC iter.                  ...        0 min,  0.004 sec
     gradient                   ...        0 min,  0.002 sec
 * total energy  :   -23.1998197 Eh     change       -0.9334845E-05 Eh
   gradient norm :     0.0011070 Eh/α   predicted    -0.5891302E-05 ( -36.89%)
   displ. norm   :     0.0309473 α      lambda       -0.4675009E-05
   maximum displ.:     0.0241098 α      in ANC's #1, #2, #3, ...

........................................................................
.............................. CYCLE    7 ..............................
........................................................................

 iter      E             dE          RMSdq      gap      omega  full diag
   1    -23.5245810 -0.235246E+02  0.471E-02    3.60       0.0  T
   2    -23.5245813 -0.287482E-06  0.226E-02    3.60       1.2  T
   3    -23.5245813 -0.314103E-07  0.290E-03    3.60       9.2  T
   4    -23.5245813 -0.412378E-07  0.160E-03    3.60      16.7  T
   5    -23.5245813 -0.660696E-08  0.270E-04    3.60      98.8  T
   6    -23.5245813 -0.416961E-09  0.127E-04    3.60     211.1  T
     SCC iter.                  ...        0 min,  0.003 sec
     gradient                   ...        0 min,  0.001 sec
 * total energy  :   -23.1998268 Eh     change       -0.7116611E-05 Eh
   gradient norm :     0.0011823 Eh/α   predicted    -0.2337245E-05 ( -67.16%)
   displ. norm   :     0.0376027 α      lambda       -0.6085914E-05
   maximum displ.:     0.0288128 α      in ANC's #1, #2, #7, ...

........................................................................
.............................. CYCLE    8 ..............................
........................................................................

 iter      E             dE          RMSdq      gap      omega  full diag
   1    -23.5245073 -0.235245E+02  0.580E-02    3.60       0.0  T
   2    -23.5245077 -0.443268E-06  0.277E-02    3.60       1.0  T
   3    -23.5245078 -0.576571E-07  0.327E-03    3.60       8.2  T
   4    -23.5245079 -0.544168E-07  0.185E-03    3.60      14.5  T
   5    -23.5245079 -0.955357E-08  0.355E-04    3.60      75.2  T
   6    -23.5245079 -0.804143E-09  0.164E-04    3.60     162.9  T
     SCC iter.                  ...        0 min,  0.002 sec
     gradient                   ...        0 min,  0.002 sec
 * total energy  :   -23.1998369 Eh     change       -0.1009176E-04 Eh
   gradient norm :     0.0014402 Eh/α   predicted    -0.3046580E-05 ( -69.81%)
   displ. norm   :     0.0450978 α      lambda       -0.9128873E-05
   maximum displ.:     0.0331112 α      in ANC's #1, #2, #7, ...

........................................................................
.............................. CYCLE    9 ..............................
........................................................................

 iter      E             dE          RMSdq      gap      omega  full diag
   1    -23.5245179 -0.235245E+02  0.694E-02    3.60       0.0  T
   2    -23.5245185 -0.648745E-06  0.331E-02    3.60       1.0  T
   3    -23.5245186 -0.883368E-07  0.392E-03    3.60       6.8  T
   4    -23.5245187 -0.739810E-07  0.222E-03    3.60      12.0  T
   5    -23.5245187 -0.142206E-07  0.437E-04    3.60      61.2  T
   6    -23.5245187 -0.111239E-08  0.202E-04    3.60     132.4  T
     SCC iter.                  ...        0 min,  0.004 sec
     gradient                   ...        0 min,  0.001 sec
 * total energy  :   -23.1998520 Eh     change       -0.1503686E-04 Eh
   gradient norm :     0.0018965 Eh/α   predicted    -0.4567979E-05 ( -69.62%)
   displ. norm   :     0.0517314 α      lambda       -0.1311727E-04
   maximum displ.:     0.0370885 α      in ANC's #1, #2, #7, ...

........................................................................
.............................. CYCLE   10 ..............................
........................................................................

 iter      E             dE          RMSdq      gap      omega  full diag
   1    -23.5244867 -0.235245E+02  0.787E-02    3.60       0.0  T
   2    -23.5244876 -0.858431E-06  0.375E-02    3.60       1.0  T
   3    -23.5244877 -0.111934E-06  0.452E-03    3.60       5.9  T
   4    -23.5244878 -0.103447E-06  0.254E-03    3.60      10.5  T
   5    -23.5244878 -0.176954E-07  0.518E-04    3.60      51.6  T
   6    -23.5244878 -0.144718E-08  0.238E-04    3.60     112.1  T
     SCC iter.                  ...        0 min,  0.001 sec
     gradient                   ...        0 min,  0.001 sec
 * total energy  :   -23.1998732 Eh     change       -0.2124181E-04 Eh
   gradient norm :     0.0023886 Eh/α   predicted    -0.6564690E-05 ( -69.10%)
   displ. norm   :     0.0374708 α      lambda       -0.1760691E-04
   maximum displ.:     0.0265371 α      in ANC's #1, #2, #7, ...

........................................................................
.............................. CYCLE   11 ..............................
........................................................................

 iter      E             dE          RMSdq      gap      omega  full diag
   1    -23.5244864 -0.235245E+02  0.562E-02    3.60       0.0  T
   2    -23.5244868 -0.449409E-06  0.268E-02    3.60       1.0  T
   3    -23.5244869 -0.555016E-07  0.330E-03    3.60       8.1  T
   4    -23.5244869 -0.577964E-07  0.183E-03    3.60      14.6  T
   5    -23.5244869 -0.884911E-08  0.382E-04    3.60      69.9  T
   6    -23.5244869 -0.710788E-09  0.177E-04    3.60     151.4  T
     SCC iter.                  ...        0 min,  0.002 sec
     gradient                   ...        0 min,  0.001 sec
 * total energy  :   -23.1998916 Eh     change       -0.1835799E-04 Eh
   gradient norm :     0.0027173 Eh/α   predicted    -0.8815987E-05 ( -51.98%)
   displ. norm   :     0.0389554 α      lambda       -0.2066622E-04
   maximum displ.:     0.0275207 α      in ANC's #1, #2, #9, ...

........................................................................
.............................. CYCLE   12 ..............................
........................................................................

 iter      E             dE          RMSdq      gap      omega  full diag
   1    -23.5244738 -0.235245E+02  0.578E-02    3.59       0.0  T
   2    -23.5244743 -0.488476E-06  0.275E-02    3.60       1.0  T
   3    -23.5244743 -0.567922E-07  0.346E-03    3.60       7.7  T
   4    -23.5244744 -0.668278E-07  0.190E-03    3.60      14.1  T
   5    -23.5244744 -0.902230E-08  0.406E-04    3.60      65.9  T
   6    -23.5244744 -0.723848E-09  0.188E-04    3.60     142.3  T
     SCC iter.                  ...        0 min,  0.002 sec
     gradient                   ...        0 min,  0.001 sec
 * total energy  :   -23.1999129 Eh     change       -0.2136940E-04 Eh
   gradient norm :     0.0030640 Eh/α   predicted    -0.1034831E-04 ( -51.57%)
   displ. norm   :     0.0389647 α      lambda       -0.2350404E-04
   maximum displ.:     0.0274217 α      in ANC's #1, #2, #25, ...

........................................................................
.............................. CYCLE   13 ..............................
........................................................................

 iter      E             dE          RMSdq      gap      omega  full diag
   1    -23.5244707 -0.235245E+02  0.570E-02    3.59       0.0  T
   2    -23.5244712 -0.488013E-06  0.271E-02    3.60       1.0  T
   3    -23.5244712 -0.538957E-07  0.348E-03    3.60       7.7  T
   4    -23.5244713 -0.699469E-07  0.189E-03    3.60      14.2  T
   5    -23.5244713 -0.862034E-08  0.412E-04    3.60      64.9  T
   6    -23.5244713 -0.664709E-09  0.190E-04    3.60     140.6  T
     SCC iter.                  ...        0 min,  0.002 sec
     gradient                   ...        0 min,  0.002 sec
 * total energy  :   -23.1999371 Eh     change       -0.2414246E-04 Eh
   gradient norm :     0.0033591 Eh/α   predicted    -0.1177076E-04 ( -51.24%)
   displ. norm   :     0.0386088 α      lambda       -0.2603551E-04
   maximum displ.:     0.0271971 α      in ANC's #1, #2, #25, ...

........................................................................
.............................. CYCLE   14 ..............................
........................................................................

 iter      E             dE          RMSdq      gap      omega  full diag
   1    -23.5244715 -0.235245E+02  0.557E-02    3.59       0.0  T
   2    -23.5244720 -0.480308E-06  0.265E-02    3.59       1.0  T
   3    -23.5244720 -0.490993E-07  0.349E-03    3.60       7.7  T
   4    -23.5244721 -0.733797E-07  0.186E-03    3.60      14.4  T
   5    -23.5244721 -0.798784E-08  0.417E-04    3.60      64.1  T
   6    -23.5244721 -0.609958E-09  0.192E-04    3.60     139.5  T
     SCC iter.                  ...        0 min,  0.002 sec
     gradient                   ...        0 min,  0.001 sec
 * total energy  :   -23.1999637 Eh     change       -0.2658851E-04 Eh
   gradient norm :     0.0036151 Eh/α   predicted    -0.1303829E-04 ( -50.96%)
   displ. norm   :     0.0377611 α      lambda       -0.2821326E-04
   maximum displ.:     0.0266849 α      in ANC's #1, #2, #25, ...

........................................................................
.............................. CYCLE   15 ..............................
........................................................................

 iter      E             dE          RMSdq      gap      omega  full diag
   1    -23.5244789 -0.235245E+02  0.538E-02    3.59       0.0  T
   2    -23.5244794 -0.460687E-06  0.256E-02    3.59       1.0  T
   3    -23.5244794 -0.431414E-07  0.345E-03    3.59       7.7  T
   4    -23.5244795 -0.749304E-07  0.181E-03    3.59      14.8  T
   5    -23.5244795 -0.721386E-08  0.417E-04    3.59      64.2  T
   6    -23.5244795 -0.547157E-09  0.190E-04    3.59     140.6  T
     SCC iter.                  ...        0 min,  0.001 sec
     gradient                   ...        0 min,  0.001 sec
 * total energy  :   -23.1999924 Eh     change       -0.2868125E-04 Eh
   gradient norm :     0.0038203 Eh/α   predicted    -0.1412765E-04 ( -50.74%)
   displ. norm   :     0.0368428 α      lambda       -0.3004087E-04
   maximum displ.:     0.0261999 α      in ANC's #1, #2, #25, ...

........................................................................
.............................. CYCLE   16 ..............................
........................................................................

 iter      E             dE          RMSdq      gap      omega  full diag
   1    -23.5244904 -0.235245E+02  0.519E-02    3.59       0.0  T
   2    -23.5244908 -0.440922E-06  0.247E-02    3.59       1.1  T
   3    -23.5244909 -0.369280E-07  0.342E-03    3.59       7.8  T
   4    -23.5244910 -0.767188E-07  0.176E-03    3.59      15.2  T
   5    -23.5244910 -0.647895E-08  0.416E-04    3.59      64.2  T
   6    -23.5244910 -0.492893E-09  0.189E-04    3.59     141.7  T
     SCC iter.                  ...        0 min,  0.002 sec
     gradient                   ...        0 min,  0.002 sec
 * total energy  :   -23.2000228 Eh     change       -0.3042930E-04 Eh
   gradient norm :     0.0039924 Eh/α   predicted    -0.1504198E-04 ( -50.57%)
   displ. norm   :     0.0357014 α      lambda       -0.3155156E-04
   maximum displ.:     0.0255608 α      in ANC's #1, #2, #25, ...

........................................................................
.............................. CYCLE   17 ..............................
........................................................................

 iter      E             dE          RMSdq      gap      omega  full diag
   1    -23.5245076 -0.235245E+02  0.497E-02    3.59       0.0  T
   2    -23.5245080 -0.416235E-06  0.237E-02    3.59       1.1  T
   3    -23.5245081 -0.308244E-07  0.337E-03    3.59       7.9  T
   4    -23.5245081 -0.770179E-07  0.170E-03    3.59      15.7  T
   5    -23.5245081 -0.577060E-08  0.413E-04    3.59      64.7  T
   6    -23.5245081 -0.436437E-09  0.185E-04    3.59     144.1  T
     SCC iter.                  ...        0 min,  0.002 sec
     gradient                   ...        0 min,  0.001 sec
 * total energy  :   -23.2000547 Eh     change       -0.3186615E-04 Eh
   gradient norm :     0.0041236 Eh/α   predicted    -0.1579534E-04 ( -50.43%)
   displ. norm   :     0.0347148 α      lambda       -0.3277112E-04
   maximum displ.:     0.0250693 α      in ANC's #1, #2, #25, ...

........................................................................
.............................. CYCLE   18 ..............................
........................................................................

 iter      E             dE          RMSdq      gap      omega  full diag
   1    -23.5245269 -0.235245E+02  0.478E-02    3.59       0.0  T
   2    -23.5245273 -0.396705E-06  0.228E-02    3.59       1.2  T
   3    -23.5245273 -0.249809E-07  0.333E-03    3.59       8.0  T
   4    -23.5245274 -0.783837E-07  0.165E-03    3.59      16.2  T
   5    -23.5245274 -0.518091E-08  0.412E-04    3.59      64.9  T
   6    -23.5245274 -0.391015E-09  0.183E-04    3.59     145.7  T
     SCC iter.                  ...        0 min,  0.003 sec
     gradient                   ...        0 min,  0.001 sec
 * total energy  :   -23.2000877 Eh     change       -0.3302819E-04 Eh
   gradient norm :     0.0042395 Eh/α   predicted    -0.1640702E-04 ( -50.32%)
   displ. norm   :     0.0334469 α      lambda       -0.3376124E-04
   maximum displ.:     0.0243214 α      in ANC's #1, #2, #25, ...

........................................................................
.............................. CYCLE   19 ..............................
........................................................................

 iter      E             dE          RMSdq      gap      omega  full diag
   1    -23.5245528 -0.235246E+02  0.456E-02    3.59       0.0  T
   2    -23.5245532 -0.370378E-06  0.217E-02    3.59       1.2  T
   3    -23.5245532 -0.197478E-07  0.326E-03    3.59       8.2  T
   4    -23.5245533 -0.772045E-07  0.158E-03    3.59      16.9  T
   5    -23.5245533 -0.460576E-08  0.405E-04    3.59      66.0  T
   6    -23.5245533 -0.340648E-09  0.179E-04    3.59     149.4  T
     SCC iter.                  ...        0 min,  0.002 sec
     gradient                   ...        0 min,  0.001 sec
 * total energy  :   -23.2001216 Eh     change       -0.3396021E-04 Eh
   gradient norm :     0.0043129 Eh/α   predicted    -0.1689763E-04 ( -50.24%)
   displ. norm   :     0.0327521 α      lambda       -0.3453549E-04
   maximum displ.:     0.0240527 α      in ANC's #1, #2, #25, ...

........................................................................
.............................. CYCLE   20 ..............................
........................................................................

 iter      E             dE          RMSdq      gap      omega  full diag
   1    -23.5245751 -0.235246E+02  0.442E-02    3.59       0.0  T
   2    -23.5245755 -0.359289E-06  0.210E-02    3.59       1.3  T
   3    -23.5245755 -0.145039E-07  0.326E-03    3.59       8.2  T
   4    -23.5245756 -0.801055E-07  0.155E-03    3.59      17.3  T
   5    -23.5245756 -0.421662E-08  0.407E-04    3.59      65.7  T
   6    -23.5245756 -0.309573E-09  0.179E-04    3.59     149.6  T
     SCC iter.                  ...        0 min,  0.002 sec
     gradient                   ...        0 min,  0.001 sec
 * total energy  :   -23.2001563 Eh     change       -0.3468838E-04 Eh
   gradient norm :     0.0044092 Eh/α   predicted    -0.1728482E-04 ( -50.17%)
   displ. norm   :     0.0309416 α      lambda       -0.3514696E-04
   maximum displ.:     0.0227864 α      in ANC's #1, #2, #25, ...
 * RMSD in coord.:     0.2116234 α      energy gain  -0.1025789E-01 Eh

generating ANC from model Hessian ...
Using Lindh-Hessian (1995)
 Shifting diagonal of input Hessian by    6.3698770365855093E-003
 Lowest  eigenvalues of input Hessian
    0.000000    0.000000    0.000000    0.000000    0.000000    0.000000
    0.010000    0.011509    0.019620    0.021906    0.026811    0.035473
    0.043821    0.052141    0.055228    0.076197    0.087587    0.097613
 Highest eigenvalues
    1.482044    1.612047    1.740228    1.899595    2.016882    2.110198


........................................................................
.............................. CYCLE   21 ..............................
........................................................................

 iter      E             dE          RMSdq      gap      omega  full diag
   1    -23.5246145 -0.235246E+02  0.413E-02    3.59       0.0  T
   2    -23.5246148 -0.320739E-06  0.197E-02    3.59       1.4  T
   3    -23.5246148 -0.110491E-07  0.311E-03    3.59       8.6  T
   4    -23.5246149 -0.736234E-07  0.145E-03    3.59      18.4  T
   5    -23.5246149 -0.366528E-08  0.390E-04    3.59      68.6  T
   6    -23.5246149 -0.255266E-09  0.169E-04    3.59     158.1  T
     SCC iter.                  ...        0 min,  0.002 sec
     gradient                   ...        0 min,  0.001 sec
 * total energy  :   -23.2001916 Eh     change       -0.3526217E-04 Eh
   gradient norm :     0.0044021 Eh/α   predicted     0.0000000E+00 (-100.00%)
   displ. norm   :     0.0962104 α      lambda       -0.1361401E-03
   maximum displ.:     0.0792518 α      in ANC's #2, #1, #9, ...

........................................................................
.............................. CYCLE   22 ..............................
........................................................................

 iter      E             dE          RMSdq      gap      omega  full diag
   1    -23.5247528 -0.235248E+02  0.130E-01    3.58       0.0  T
   2    -23.5247559 -0.315108E-05  0.625E-02    3.59       1.0  T
   3    -23.5247562 -0.259396E-06  0.916E-03    3.59       2.9  T
   4    -23.5247567 -0.565444E-06  0.458E-03    3.59       5.8  T
   5    -23.5247568 -0.375606E-07  0.112E-03    3.59      23.9  T
   6    -23.5247568 -0.344745E-08  0.478E-04    3.59      55.9  T
   7    -23.5247568 -0.165154E-08  0.171E-04    3.59     156.1  T
     SCC iter.                  ...        0 min,  0.003 sec
     gradient                   ...        0 min,  0.001 sec
 * total energy  :   -23.2003242 Eh     change       -0.1326152E-03 Eh
   gradient norm :     0.0030364 Eh/α   predicted    -0.6870064E-04 ( -48.20%)
   displ. norm   :     0.3327326 α      lambda       -0.4633085E-03
   maximum displ.:     0.2576623 α      in ANC's #2, #1, #9, ...

........................................................................
.............................. CYCLE   23 ..............................
........................................................................

 iter      E             dE          RMSdq      gap      omega  full diag
   1    -23.5237283 -0.235237E+02  0.427E-01    3.55       0.0  T
   2    -23.5237735 -0.452211E-04  0.202E-01    3.57       1.0  T
   3    -23.5237742 -0.636645E-06  0.357E-02    3.58       1.0  T
   4    -23.5237846 -0.103947E-04  0.158E-02    3.58       1.7  T
   5    -23.5237851 -0.504579E-06  0.510E-03    3.58       5.2  T
   6    -23.5237851 -0.138205E-07  0.203E-03    3.58      13.1  T
   7    -23.5237851 -0.321337E-07  0.817E-04    3.58      32.7  T
   8    -23.5237851 -0.193753E-08  0.361E-04    3.58      74.0  T
     SCC iter.                  ...        0 min,  0.003 sec
     gradient                   ...        0 min,  0.001 sec
 * total energy  :   -23.2007233 Eh     change       -0.3990710E-03 Eh
   gradient norm :     0.0102891 Eh/α   predicted    -0.2573012E-03 ( -35.52%)
   displ. norm   :     0.3559829 α      lambda       -0.3904803E-03
   maximum displ.:     0.2772087 α      in ANC's #2, #1, #9, ...

........................................................................
.............................. CYCLE   24 ..............................
........................................................................

 iter      E             dE          RMSdq      gap      omega  full diag
   1    -23.5214677 -0.235215E+02  0.423E-01    3.52       0.0  T
   2    -23.5215318 -0.640768E-04  0.198E-01    3.56       1.0  T
   3    -23.5215252  0.657697E-05  0.483E-02    3.56       1.0  T
   4    -23.5215465 -0.212594E-04  0.184E-02    3.56       1.5  T
   5    -23.5215473 -0.771805E-06  0.629E-03    3.56       4.2  T
   6    -23.5215473  0.283392E-08  0.272E-03    3.56       9.8  T
   7    -23.5215473 -0.489348E-07  0.112E-03    3.56      23.9  T
   8    -23.5215473 -0.688529E-08  0.445E-04    3.56      60.1  T
   9    -23.5215473 -0.130260E-09  0.242E-04    3.56     110.3  T
     SCC iter.                  ...        0 min,  0.004 sec
     gradient                   ...        0 min,  0.001 sec
 * total energy  :   -23.2005977 Eh     change        0.1255924E-03 Eh
   gradient norm :     0.0254135 Eh/α   predicted    -0.2199773E-03 (-275.15%)
   displ. norm   :     0.1417658 α      lambda       -0.9830522E-03
   maximum displ.:     0.1102272 α      in ANC's #2, #1, #9, ...

........................................................................
.............................. CYCLE   25 ..............................
........................................................................

 iter      E             dE          RMSdq      gap      omega  full diag
   1    -23.5247055 -0.235247E+02  0.201E-01    3.59       0.0  T
   2    -23.5247221 -0.166389E-04  0.989E-02    3.58       1.0  T
   3    -23.5247231 -0.100079E-05  0.200E-02    3.58       1.3  T
   4    -23.5247249 -0.178892E-05  0.109E-02    3.58       2.5  T
   5    -23.5247256 -0.638763E-06  0.308E-03    3.58       8.7  T
   6    -23.5247256 -0.278226E-08  0.150E-03    3.58      17.8  T
   7    -23.5247256 -0.976096E-08  0.608E-04    3.58      44.0  T
   8    -23.5247256 -0.190916E-08  0.265E-04    3.58     100.8  T
     SCC iter.                  ...        0 min,  0.005 sec
     gradient                   ...        0 min,  0.002 sec
 * total energy  :   -23.2011106 Eh     change       -0.5128654E-03 Eh
   gradient norm :     0.0091366 Eh/α   predicted    -0.5014040E-03 (  -2.23%)
   displ. norm   :     0.1046277 α      lambda       -0.2564359E-03
   maximum displ.:     0.0711516 α      in ANC's #2, #1, #26, ...

........................................................................
.............................. CYCLE   26 ..............................
........................................................................

 iter      E             dE          RMSdq      gap      omega  full diag
   1    -23.5258279 -0.235258E+02  0.110E-01    3.56       0.0  T
   2    -23.5258322 -0.436460E-05  0.529E-02    3.58       1.0  T
   3    -23.5258308  0.147944E-05  0.174E-02    3.58       1.5  T
   4    -23.5258336 -0.287814E-05  0.505E-03    3.58       5.3  T
   5    -23.5258337 -0.361046E-07  0.179E-03    3.58      14.9  T
   6    -23.5258337 -0.872216E-09  0.829E-04    3.58      32.2  T
   7    -23.5258337 -0.462002E-08  0.316E-04    3.58      84.5  T
     SCC iter.                  ...        0 min,  0.005 sec
     gradient                   ...        0 min,  0.002 sec
 * total energy  :   -23.2013319 Eh     change       -0.2213039E-03 Eh
   gradient norm :     0.0063705 Eh/α   predicted    -0.1296207E-03 ( -41.43%)
   displ. norm   :     0.4229046 α      lambda       -0.7790051E-03
   maximum displ.:     0.2976525 α      in ANC's #2, #1, #26, ...

........................................................................
.............................. CYCLE   27 ..............................
........................................................................

 iter      E             dE          RMSdq      gap      omega  full diag
   1    -23.5258807 -0.235259E+02  0.486E-01    3.52       0.0  T
   2    -23.5259624 -0.816284E-04  0.230E-01    3.56       1.0  T
   3    -23.5259367  0.257071E-04  0.696E-02    3.56       1.0  T
   4    -23.5259865 -0.498589E-04  0.201E-02    3.57       1.3  T
   5    -23.5259871 -0.561704E-06  0.761E-03    3.57       3.5  T
   6    -23.5259871 -0.236131E-08  0.311E-03    3.57       8.6  T
   7    -23.5259872 -0.770973E-07  0.114E-03    3.57      23.5  T
   8    -23.5259872 -0.456819E-08  0.469E-04    3.57      57.0  T
   9    -23.5259872 -0.292118E-09  0.244E-04    3.57     109.4  T
     SCC iter.                  ...        0 min,  0.006 sec
     gradient                   ...        0 min,  0.001 sec
 * total energy  :   -23.2018530 Eh     change       -0.5211795E-03 Eh
   gradient norm :     0.0153520 Eh/α   predicted    -0.4591651E-03 ( -11.90%)
   displ. norm   :     0.1301799 α      lambda       -0.3948269E-03
   maximum displ.:     0.0931556 α      in ANC's #1, #2, #26, ...

........................................................................
.............................. CYCLE   28 ..............................
........................................................................

 iter      E             dE          RMSdq      gap      omega  full diag
   1    -23.5267080 -0.235267E+02  0.157E-01    3.56       0.0  T
   2    -23.5267144 -0.644100E-05  0.741E-02    3.56       1.0  T
   3    -23.5267133  0.109985E-05  0.181E-02    3.57       1.5  T
   4    -23.5267163 -0.293656E-05  0.619E-03    3.57       4.3  T
   5    -23.5267163 -0.456457E-07  0.226E-03    3.57      11.8  T
   6    -23.5267163 -0.436042E-08  0.871E-04    3.57      30.7  T
   7    -23.5267163 -0.538104E-08  0.335E-04    3.57      79.9  T
     SCC iter.                  ...        0 min,  0.003 sec
     gradient                   ...        0 min,  0.002 sec
 * total energy  :   -23.2021906 Eh     change       -0.3375978E-03 Eh
   gradient norm :     0.0126869 Eh/α   predicted    -0.2007593E-03 ( -40.53%)
   displ. norm   :     0.2453812 α      lambda       -0.8453283E-03
   maximum displ.:     0.1763125 α      in ANC's #1, #26, #2, ...

........................................................................
.............................. CYCLE   29 ..............................
........................................................................

 iter      E             dE          RMSdq      gap      omega  full diag
   1    -23.5278529 -0.235279E+02  0.318E-01    3.55       0.0  T
   2    -23.5278732 -0.202267E-04  0.151E-01    3.56       1.0  T
   3    -23.5278732 -0.933315E-07  0.274E-02    3.57       1.0  T
   4    -23.5278784 -0.519110E-05  0.122E-02    3.57       2.2  T
   5    -23.5278787 -0.245063E-06  0.358E-03    3.57       7.5  T
   6    -23.5278787 -0.832813E-08  0.129E-03    3.57      20.6  T
   7    -23.5278787 -0.109697E-07  0.571E-04    3.57      46.8  T
   8    -23.5278787 -0.111119E-08  0.202E-04    3.57     132.0  T
     SCC iter.                  ...        0 min,  0.004 sec
     gradient                   ...        0 min,  0.002 sec
 * total energy  :   -23.2028035 Eh     change       -0.6128180E-03 Eh
   gradient norm :     0.0055383 Eh/α   predicted    -0.4481147E-03 ( -26.88%)
   displ. norm   :     0.6514968 α      lambda       -0.1106041E-02
   maximum displ.:     0.4487833 α      in ANC's #1, #2, #26, ...

........................................................................
.............................. CYCLE   30 ..............................
........................................................................

 iter      E             dE          RMSdq      gap      omega  full diag
   1    -23.5186269 -0.235186E+02  0.937E-01    3.50       0.0  T
   2    -23.5188856 -0.258621E-03  0.432E-01    3.54       1.0  T
   3    -23.5188607  0.248256E-04  0.941E-02    3.53       1.0  T
   4    -23.5189320 -0.712784E-04  0.432E-02    3.54       1.0  T
   5    -23.5189383 -0.631678E-05  0.131E-02    3.54       2.0  T
   6    -23.5189383  0.489686E-08  0.528E-03    3.54       5.1  T
   7    -23.5189385 -0.150676E-06  0.226E-03    3.54      11.8  T
   8    -23.5189385 -0.344342E-07  0.957E-04    3.54      27.9  T
   9    -23.5189385 -0.188720E-10  0.459E-04    3.54      58.3  T
     SCC iter.                  ...        0 min,  0.004 sec
     gradient                   ...        0 min,  0.002 sec
 * total energy  :   -23.2004137 Eh     change        0.2389727E-02 Eh
   gradient norm :     0.0442880 Eh/α   predicted    -0.7877250E-03 (-132.96%)
   displ. norm   :     0.3460392 α      lambda       -0.6493201E-02
   maximum displ.:     0.2360544 α      in ANC's #2, #1, #26, ...

........................................................................
.............................. CYCLE   31 ..............................
........................................................................

 iter      E             dE          RMSdq      gap      omega  full diag
   1    -23.5279505 -0.235280E+02  0.533E-01    3.58       0.0  T
   2    -23.5280505 -0.999413E-04  0.268E-01    3.56       1.0  T
   3    -23.5280434  0.702139E-05  0.596E-02    3.56       1.0  T
   4    -23.5280698 -0.263694E-04  0.290E-02    3.56       1.0  T
   5    -23.5280729 -0.312282E-05  0.816E-03    3.56       3.3  T
   6    -23.5280730 -0.227015E-07  0.388E-03    3.56       6.9  T
   7    -23.5280730 -0.666900E-07  0.136E-03    3.56      19.6  T
   8    -23.5280730 -0.135043E-07  0.481E-04    3.56      55.6  T
   9    -23.5280730 -0.506695E-09  0.273E-04    3.56      97.8  T
     SCC iter.                  ...        0 min,  0.002 sec
     gradient                   ...        0 min,  0.001 sec
 * total energy  :   -23.2033407 Eh     change       -0.2926981E-02 Eh
   gradient norm :     0.0038219 Eh/α   predicted    -0.3635359E-02 (  24.20%)
   displ. norm   :     0.0723067 α      lambda       -0.1702490E-03
   maximum displ.:     0.0495064 α      in ANC's #26, #9, #1, ...

........................................................................
.............................. CYCLE   32 ..............................
........................................................................

 iter      E             dE          RMSdq      gap      omega  full diag
   1    -23.5284615 -0.235285E+02  0.120E-01    3.55       0.0  T
   2    -23.5284638 -0.222892E-05  0.582E-02    3.56       1.0  T
   3    -23.5284638  0.735334E-08  0.850E-03    3.56       3.1  T
   4    -23.5284643 -0.495306E-06  0.480E-03    3.56       5.6  T
   5    -23.5284643 -0.798822E-07  0.138E-03    3.56      19.3  T
   6    -23.5284643 -0.648348E-08  0.447E-04    3.56      59.8  T
   7    -23.5284643 -0.134967E-08  0.209E-04    3.56     128.1  T
     SCC iter.                  ...        0 min,  0.002 sec
     gradient                   ...        0 min,  0.001 sec
 * total energy  :   -23.2034862 Eh     change       -0.1455204E-03 Eh
   gradient norm :     0.0029797 Eh/α   predicted    -0.8556956E-04 ( -41.20%)
   displ. norm   :     0.3374205 α      lambda       -0.5629585E-03
   maximum displ.:     0.2216013 α      in ANC's #26, #1, #9, ...

........................................................................
.............................. CYCLE   33 ..............................
........................................................................

 iter      E             dE          RMSdq      gap      omega  full diag
   1    -23.5267524 -0.235268E+02  0.545E-01    3.53       0.0  T
   2    -23.5267994 -0.470074E-04  0.260E-01    3.55       1.0  T
   3    -23.5268001 -0.778215E-06  0.384E-02    3.55       1.0  T
   4    -23.5268096 -0.949687E-05  0.204E-02    3.55       1.3  T
   5    -23.5268109 -0.122248E-05  0.519E-03    3.55       5.1  T
   6    -23.5268109 -0.261583E-07  0.178E-03    3.55      15.0  T
   7    -23.5268109 -0.127864E-07  0.919E-04    3.55      29.1  T
   8    -23.5268109 -0.546080E-08  0.384E-04    3.55      69.6  T
     SCC iter.                  ...        0 min,  0.003 sec
     gradient                   ...        0 min,  0.002 sec
 * total energy  :   -23.2035746 Eh     change       -0.8836283E-04 Eh
   gradient norm :     0.0161235 Eh/α   predicted    -0.3135303E-03 ( 254.82%)
   displ. norm   :     0.1254767 α      lambda       -0.5442475E-03
   maximum displ.:     0.0724414 α      in ANC's #26, #1, #2, ...

........................................................................
.............................. CYCLE   34 ..............................
........................................................................

 iter      E             dE          RMSdq      gap      omega  full diag
   1    -23.5288528 -0.235289E+02  0.214E-01    3.56       0.0  T
   2    -23.5288631 -0.103736E-04  0.105E-01    3.56       1.0  T
   3    -23.5288635 -0.399179E-06  0.172E-02    3.56       1.6  T
   4    -23.5288650 -0.148848E-05  0.939E-03    3.56       2.8  T
   5    -23.5288655 -0.429027E-06  0.250E-03    3.56      10.7  T
   6    -23.5288655 -0.682071E-08  0.824E-04    3.56      32.5  T
   7    -23.5288655 -0.141625E-08  0.334E-04    3.56      80.0  T
     SCC iter.                  ...        0 min,  0.002 sec
     gradient                   ...        0 min,  0.001 sec
 * total energy  :   -23.2037740 Eh     change       -0.1994501E-03 Eh
   gradient norm :     0.0024048 Eh/α   predicted    -0.2764074E-03 (  38.58%)
   displ. norm   :     0.0847261 α      lambda       -0.9053215E-04
   maximum displ.:     0.0584862 α      in ANC's #26, #1, #2, ...

........................................................................
.............................. CYCLE   35 ..............................
........................................................................

 iter      E             dE          RMSdq      gap      omega  full diag
   1    -23.5287746 -0.235288E+02  0.132E-01    3.55       0.0  T
   2    -23.5287769 -0.226261E-05  0.632E-02    3.55       1.0  T
   3    -23.5287767  0.162571E-06  0.101E-02    3.55       2.6  T
   4    -23.5287775 -0.783948E-06  0.503E-03    3.56       5.3  T
   5    -23.5287775 -0.440153E-07  0.931E-04    3.56      28.7  T
   6    -23.5287775 -0.152862E-08  0.388E-04    3.55      68.9  T
     SCC iter.                  ...        0 min,  0.003 sec
     gradient                   ...        0 min,  0.001 sec
 * total energy  :   -23.2038541 Eh     change       -0.8007454E-04 Eh
   gradient norm :     0.0028394 Eh/α   predicted    -0.4559013E-04 ( -43.07%)
   displ. norm   :     0.2838598 α      lambda       -0.2498612E-03
   maximum displ.:     0.2011236 α      in ANC's #26, #1, #2, ...

........................................................................
.............................. CYCLE   36 ..............................
........................................................................

 iter      E             dE          RMSdq      gap      omega  full diag
   1    -23.5274799 -0.235275E+02  0.435E-01    3.54       0.0  T
   2    -23.5275052 -0.252818E-04  0.208E-01    3.55       1.0  T
   3    -23.5275066 -0.145151E-05  0.289E-02    3.55       1.0  T
   4    -23.5275110 -0.437752E-05  0.165E-02    3.55       1.6  T
   5    -23.5275117 -0.762035E-06  0.305E-03    3.55       8.8  T
   6    -23.5275118 -0.813703E-08  0.125E-03    3.55      21.3  T
   7    -23.5275118 -0.838358E-08  0.627E-04    3.55      42.6  T
   8    -23.5275118 -0.309432E-08  0.205E-04    3.55     130.5  T
     SCC iter.                  ...        0 min,  0.003 sec
     gradient                   ...        0 min,  0.002 sec
 * total energy  :   -23.2038855 Eh     change       -0.3135993E-04 Eh
   gradient norm :     0.0109563 Eh/α   predicted    -0.1349971E-03 ( 330.48%)
   displ. norm   :     0.1157848 α      lambda       -0.2516288E-03
   maximum displ.:     0.0785054 α      in ANC's #26, #1, #2, ...

........................................................................
.............................. CYCLE   37 ..............................
........................................................................

 iter      E             dE          RMSdq      gap      omega  full diag
   1    -23.5289651 -0.235290E+02  0.183E-01    3.56       0.0  T
   2    -23.5289709 -0.577285E-05  0.885E-02    3.55       1.0  T
   3    -23.5289713 -0.415062E-06  0.128E-02    3.56       2.1  T
   4    -23.5289720 -0.760146E-06  0.739E-03    3.55       3.6  T
   5    -23.5289723 -0.233166E-06  0.166E-03    3.56      16.1  T
   6    -23.5289723 -0.134345E-08  0.643E-04    3.56      41.6  T
   7    -23.5289723 -0.248631E-08  0.268E-04    3.56      99.8  T
     SCC iter.                  ...        0 min,  0.003 sec
     gradient                   ...        0 min,  0.001 sec
 * total energy  :   -23.2039813 Eh     change       -0.9584775E-04 Eh
   gradient norm :     0.0021785 Eh/α   predicted    -0.1275000E-03 (  33.02%)
   displ. norm   :     0.0582085 α      lambda       -0.3542234E-04
   maximum displ.:     0.0426633 α      in ANC's #26, #1, #2, ...

........................................................................
.............................. CYCLE   38 ..............................
........................................................................

 iter      E             dE          RMSdq      gap      omega  full diag
   1    -23.5290274 -0.235290E+02  0.865E-02    3.55       0.0  T
   2    -23.5290283 -0.852624E-06  0.415E-02    3.56       1.0  T
   3    -23.5290284 -0.140471E-06  0.509E-03    3.56       5.3  T
   4    -23.5290285 -0.549504E-07  0.313E-03    3.56       8.5  T
   5    -23.5290285 -0.321958E-07  0.461E-04    3.56      57.9  T
   6    -23.5290285 -0.586546E-09  0.212E-04    3.56     125.9  T
     SCC iter.                  ...        0 min,  0.001 sec
     gradient                   ...        0 min,  0.001 sec
 * total energy  :   -23.2040120 Eh     change       -0.3068515E-04 Eh
   gradient norm :     0.0018772 Eh/α   predicted    -0.1776982E-04 ( -42.09%)
   displ. norm   :     0.2413546 α      lambda       -0.7456480E-04
   maximum displ.:     0.1744609 α      in ANC's #26, #1, #2, ...

........................................................................
.............................. CYCLE   39 ..............................
........................................................................

 iter      E             dE          RMSdq      gap      omega  full diag
   1    -23.5284277 -0.235284E+02  0.347E-01    3.55       0.0  T
   2    -23.5284420 -0.142941E-04  0.166E-01    3.56       1.0  T
   3    -23.5284449 -0.292519E-05  0.192E-02    3.56       1.4  T
   4    -23.5284449 -0.947595E-08  0.116E-02    3.55       2.3  T
   5    -23.5284456 -0.707534E-06  0.202E-03    3.55      13.2  T
   6    -23.5284456 -0.148897E-07  0.918E-04    3.55      29.1  T
   7    -23.5284456 -0.311785E-08  0.342E-04    3.55      78.1  T
     SCC iter.                  ...        0 min,  0.002 sec
     gradient                   ...        0 min,  0.001 sec
 * total energy  :   -23.2040182 Eh     change       -0.6165329E-05 Eh
   gradient norm :     0.0057552 Eh/α   predicted    -0.3824524E-04 ( 520.33%)
   displ. norm   :     0.0649768 α      lambda       -0.7958175E-04
   maximum displ.:     0.0467860 α      in ANC's #26, #1, #2, ...

........................................................................
.............................. CYCLE   40 ..............................
........................................................................

 iter      E             dE          RMSdq      gap      omega  full diag
   1    -23.5291826 -0.235292E+02  0.988E-02    3.56       0.0  T
   2    -23.5291842 -0.156786E-05  0.475E-02    3.56       1.0  T
   3    -23.5291844 -0.227245E-06  0.622E-03    3.56       4.3  T
   4    -23.5291845 -0.591048E-07  0.389E-03    3.56       6.9  T
   5    -23.5291846 -0.889441E-07  0.813E-04    3.56      32.9  T
   6    -23.5291846 -0.293653E-09  0.305E-04    3.56      87.6  T
     SCC iter.                  ...        0 min,  0.002 sec
     gradient                   ...        0 min,  0.001 sec
 * total energy  :   -23.2040589 Eh     change       -0.4069238E-04 Eh
   gradient norm :     0.0010975 Eh/α   predicted    -0.3995832E-04 (  -1.80%)
   displ. norm   :     0.0173997 α      lambda       -0.3159819E-05
   maximum displ.:     0.0123527 α      in ANC's #1, #2, #26, ...

........................................................................
.............................. CYCLE   41 ..............................
........................................................................

 iter      E             dE          RMSdq      gap      omega  full diag
   1    -23.5292936 -0.235293E+02  0.151E-02    3.56       0.0  T
   2    -23.5292936 -0.528446E-07  0.740E-03    3.56       3.6  T
   3    -23.5292936  0.336986E-08  0.157E-03    3.56      17.0  T
   4    -23.5292937 -0.137491E-07  0.823E-04    3.56      32.5  T
   5    -23.5292937 -0.172284E-08  0.193E-04    3.56     138.5  T
     SCC iter.                  ...        0 min,  0.001 sec
     gradient                   ...        0 min,  0.001 sec
 * total energy  :   -23.2040621 Eh     change       -0.3235793E-05 Eh
   gradient norm :     0.0004820 Eh/α   predicted    -0.1581691E-05 ( -51.12%)
   displ. norm   :     0.0297598 α      lambda       -0.1980737E-05
   maximum displ.:     0.0223977 α      in ANC's #1, #26, #2, ...

   *** GEOMETRY OPTIMIZATION CONVERGED AFTER 41 ITERATIONS ***

------------------------------------------------------------------------
 total energy gain   :        -0.0141637 Eh       -8.8878 kcal/mol
 total RMSD          :         0.8209831 a0        0.4344 Å
 total power (kW/mol):        -0.9069924 (step) -163.7033 (real)
------------------------------------------------------------------------

 ANCopt (total)                0 d,  0 h,  0 min,  0.227 sec
 optimizer setup                ...        0 min,  0.001 sec (  0.249%)
 model hessian                  ...        0 min,  0.004 sec (  1.767%)
 ANC generation                 ...        0 min,  0.001 sec (  0.367%)
 coordinate transformation      ...        0 min,  0.000 sec (  0.066%)
 single point calculation       ...        0 min,  0.203 sec ( 89.234%)
 optimization log               ...        0 min,  0.004 sec (  1.836%)
 hessian update                 ...        0 min,  0.000 sec (  0.191%)
 rational function              ...        0 min,  0.013 sec (  5.611%)

================
 final structure:
================
14
 xtb: 6.6.0 (conda-forge)
C           -0.84264727645255        0.58442026799919        1.00072049989829
C            0.49854744048541        0.90632407804636        0.92869360348349
C            1.30003174294627        0.33201559671150       -0.04815016344856
C            0.74980768339063       -0.56533992353545       -0.95415475300615
C           -0.58993162225818       -0.88658375888464       -0.88225514318454
C           -1.39702473520111       -0.31495519780737        0.09695627775161
O           -2.71174461149526       -0.66230404393899        0.13197265459554
S            3.01375355041121        0.77393750152643       -0.09842099959944
H           -1.46302397086805        1.03428979259006        1.76440493033248
H            0.92857096158286        1.60410016654825        1.63062659098444
H            1.36708013210367       -1.01548633022832       -1.71810975652034
H           -1.03030416755801       -1.58170431993212       -1.57872358388649
H           -3.15267779375987       -0.20310061224250        0.85706553301636
H            3.32956266667289       -0.00551321685232       -1.13042569041672

 Bond Distances (Angstroems)
 ---------------------------
C1-C2=1.3812         C1-C6=1.3903         C1-H9=1.0819         C2-C1=1.3812         C2-C3=1.3880         C2-H10=1.0791        
C3-C2=1.3880         C3-C4=1.3888         C3-S8=1.7705         C4-C3=1.3888         C4-C5=1.3796         C4-H11=1.0804        
C5-C4=1.3796         C5-C6=1.3918         C5-H12=1.0780        C6-C1=1.3903         C6-C5=1.3918         C6-O7=1.3603         
O7-C6=1.3603         O7-H13=0.9649        S8-C3=1.7705         S8-H14=1.3313        H9-C1=1.0819         H10-C2=1.0791        
H11-C4=1.0804        H12-C5=1.0780        H13-O7=0.9649        H14-S8=1.3313        
 C  H  Rav=1.0799 sigma=0.0014  Rmin=1.0780  Rmax=1.0819     4
 C  C  Rav=1.3866 sigma=0.0046  Rmin=1.3796  Rmax=1.3918     6
 O  H  Rav=0.9649 sigma=0.0000  Rmin=0.9649  Rmax=0.9649     1
 O  C  Rav=1.3603 sigma=0.0000  Rmin=1.3603  Rmax=1.3603     1
 S  H  Rav=1.3313 sigma=0.0000  Rmin=1.3313  Rmax=1.3313     1
 S  C  Rav=1.7705 sigma=0.0000  Rmin=1.7705  Rmax=1.7705     1

 selected bond angles (degree)
 --------------------
C6-C1-C2=120.27                H9-C1-C2=119.78                H9-C1-C6=119.95                C3-C2-C1=120.07                
H10-C2-C1=120.25               H10-C2-C3=119.69               C4-C3-C2=119.85                S8-C3-C2=118.40                
S8-C3-C4=121.75                C5-C4-C3=120.08                H11-C4-C3=120.27               H11-C4-C5=119.65               
C6-C5-C4=120.28                H12-C5-C4=120.87               H12-C5-C6=118.85               C5-C6-C1=119.46                
O7-C6-C1=122.26                O7-C6-C5=118.28                H13-O7-C6=109.85               H14-S8-C3= 96.06               

 selected dihedral angles (degree)
 ---------------------------------
C3-C2-C1-C6=  0.00            C3-C2-C1-H9=179.96            H10-C2-C1-C6=180.03           H10-C2-C1-H9=  0.00           
C4-C3-C2-C1=  0.10            C4-C3-C2-H10=180.07           S8-C3-C2-C1=180.10            S8-C3-C2-H10=  0.07           
C5-C4-C3-C2=359.91            C5-C4-C3-S8=179.91            H11-C4-C3-C2=179.92           H11-C4-C3-S8=359.92           
C6-C5-C4-C3=  0.00            C6-C5-C4-H11=179.97           H12-C5-C4-C3=180.02           H12-C5-C4-H11=  0.00          
C5-C6-C1-C2=359.90            C5-C6-C1-H9=179.93            O7-C6-C1-C2=179.90            O7-C6-C1-H9=359.94            
C1-C6-C5-C4=  0.12            C1-C6-C5-H12=180.08           O7-C6-C5-C4=180.11            O7-C6-C5-H12=  0.07           
H13-O7-C6-C1=359.57           H13-O7-C6-C5=179.58           H14-S8-C3-C2=179.25           H14-S8-C3-C4=359.25           
           -------------------------------------------------
          |                Final Singlepoint                |
           -------------------------------------------------

          ...................................................
          :                      SETUP                      :
          :.................................................:
          :  # basis functions                  44          :
          :  # atomic orbitals                  43          :
          :  # shells                           23          :
          :  # electrons                        42          :
          :  max. iterations                   250          :
          :  Hamiltonian                  GFN2-xTB          :
          :  restarted?                      false          :
          :  GBSA solvation                  false          :
          :  PC potential                    false          :
          :  electronic temp.          300.0000000     K    :
          :  accuracy                    1.0000000          :
          :  -> integral cutoff          0.2500000E+02      :
          :  -> integral neglect         0.1000000E-07      :
          :  -> SCF convergence          0.1000000E-05 Eh   :
          :  -> wf. convergence          0.1000000E-03 e    :
          :  Broyden damping             0.4000000          :
          ...................................................

 iter      E             dE          RMSdq      gap      omega  full diag
   1    -23.5292937 -0.235293E+02  0.762E-05    3.56       0.0  T
   2    -23.5292937 -0.188329E-10  0.456E-05    3.56     585.5  T
   3    -23.5292937 -0.113936E-10  0.255E-05    3.56    1048.4  T

   *** convergence criteria satisfied after 3 iterations ***

         #    Occupation            Energy/Eh            Energy/eV
      -------------------------------------------------------------
         1        2.0000           -0.7181976             -19.5432
       ...           ...                  ...                  ...
        15        2.0000           -0.4793933             -13.0450
        16        2.0000           -0.4739893             -12.8979
        17        2.0000           -0.4468063             -12.1582
        18        2.0000           -0.4339916             -11.8095
        19        2.0000           -0.4170186             -11.3477
        20        2.0000           -0.4130650             -11.2401
        21        2.0000           -0.3657960              -9.9538 (HOMO)
        22                         -0.2351067              -6.3976 (LUMO)
        23                         -0.2257441              -6.1428
        24                         -0.2024548              -5.5091
        25                         -0.1178787              -3.2076
        26                         -0.1062978              -2.8925
       ...                                ...                  ...
        43                          0.6565973              17.8669
      -------------------------------------------------------------
                  HL-Gap            0.1306893 Eh            3.5562 eV
             Fermi-level           -0.3004513 Eh           -8.1757 eV

 SCC (total)                   0 d,  0 h,  0 min,  0.003 sec
 SCC setup                      ...        0 min,  0.000 sec (  1.155%)
 Dispersion                     ...        0 min,  0.000 sec (  0.880%)
 classical contributions        ...        0 min,  0.000 sec (  0.339%)
 integral evaluation            ...        0 min,  0.001 sec ( 19.102%)
 iterations                     ...        0 min,  0.001 sec ( 44.332%)
 molecular gradient             ...        0 min,  0.001 sec ( 32.408%)
 printout                       ...        0 min,  0.000 sec (  1.558%)

         :::::::::::::::::::::::::::::::::::::::::::::::::::::
         ::                     SUMMARY                     ::
         :::::::::::::::::::::::::::::::::::::::::::::::::::::
         :: total energy             -23.204062100669 Eh    ::
         :: gradient norm              0.000482133832 Eh/a0 ::
         :: HOMO-LUMO gap              3.556237807600 eV    ::
         ::.................................................::
         :: SCC energy               -23.529293655426 Eh    ::
         :: -> isotropic ES            0.023724621909 Eh    ::
         :: -> anisotropic ES          0.002913281322 Eh    ::
         :: -> anisotropic XC          0.008936140964 Eh    ::
         :: -> dispersion             -0.011792737039 Eh    ::
         :: repulsion energy           0.325222366050 Eh    ::
         :: add. restraining           0.000000000000 Eh    ::
         :: total charge               0.000000000000 e     ::
         :::::::::::::::::::::::::::::::::::::::::::::::::::::

           -------------------------------------------------
          |                Property Printout                |
           -------------------------------------------------

    * Orbital Energies and Occupations

         #    Occupation            Energy/Eh            Energy/eV
      -------------------------------------------------------------
         1        2.0000           -0.7181976             -19.5432
       ...           ...                  ...                  ...
         9        2.0000           -0.5455698             -14.8457
        10        2.0000           -0.5305181             -14.4361
        11        2.0000           -0.5185009             -14.1091
        12        2.0000           -0.5029715             -13.6866
        13        2.0000           -0.4974301             -13.5358
        14        2.0000           -0.4903393             -13.3428
        15        2.0000           -0.4793933             -13.0450
        16        2.0000           -0.4739893             -12.8979
        17        2.0000           -0.4468063             -12.1582
        18        2.0000           -0.4339916             -11.8095
        19        2.0000           -0.4170186             -11.3477
        20        2.0000           -0.4130650             -11.2401
        21        2.0000           -0.3657960              -9.9538 (HOMO)
        22                         -0.2351067              -6.3976 (LUMO)
        23                         -0.2257441              -6.1428
        24                         -0.2024548              -5.5091
        25                         -0.1178787              -3.2076
        26                         -0.1062978              -2.8925
        27                         -0.0169473              -0.4612
        28                         -0.0128729              -0.3503
        29                          0.0409906               1.1154
        30                          0.0633497               1.7238
        31                          0.1221914               3.3250
        32                          0.1414500               3.8490
       ...                                ...                  ...
        43                          0.6565973              17.8669
      -------------------------------------------------------------
                  HL-Gap            0.1306893 Eh            3.5562 eV
             Fermi-level           -0.3004513 Eh           -8.1757 eV

     #   Z          covCN         q      C6AA      α(0)
     1   6 C        2.919    -0.068    29.697     8.936
     2   6 C        2.970    -0.037    28.922     8.821
     3   6 C        2.967     0.048    26.911     8.509
     4   6 C        2.951    -0.042    29.043     8.839
     5   6 C        2.921    -0.052    29.293     8.875
     6   6 C        2.846     0.142    24.893     8.177
     7   8 O        1.660    -0.390    20.648     6.134
     8  16 S        1.980    -0.243   151.464    20.714
     9   1 H        0.925     0.033     2.545     2.495
    10   1 H        0.926     0.047     2.363     2.404
    11   1 H        0.926     0.039     2.468     2.456
    12   1 H        0.926     0.056     2.246     2.343
    13   1 H        0.805     0.301     0.719     1.332
    14   1 H        0.923     0.166     1.288     1.775

 Mol. C6AA /au·bohr⁶  :       3219.650183
 Mol. C8AA /au·bohr⁸  :      93368.930083
 Mol. α(0) /au        :         91.811123


Wiberg/Mayer (AO) data.
largest (>0.10) Wiberg bond orders for each atom

 ---------------------------------------------------------------------------
     #   Z sym  total        # sym  WBO       # sym  WBO       # sym  WBO
 ---------------------------------------------------------------------------
     1   6 C    3.988 --     2 C    1.453     6 C    1.369     9 H    0.966
                             4 C    0.102
     2   6 C    3.991 --     1 C    1.453     3 C    1.391    10 H    0.969
                             5 C    0.106
     3   6 C    3.960 --     2 C    1.391     4 C    1.385     8 S    1.039
     4   6 C    3.990 --     5 C    1.461     3 C    1.385    11 H    0.966
                             1 C    0.102
     5   6 C    3.988 --     4 C    1.461     6 C    1.359    12 H    0.966
                             2 C    0.106
     6   6 C    3.940 --     1 C    1.369     5 C    1.359     7 O    1.073
     7   8 O    2.117 --     6 C    1.073    13 H    0.889
     8  16 S    2.152 --     3 C    1.039    14 H    0.956
     9   1 H    0.999 --     1 C    0.966
    10   1 H    0.998 --     2 C    0.969
    11   1 H    0.999 --     4 C    0.966
    12   1 H    0.997 --     5 C    0.966
    13   1 H    0.909 --     7 O    0.889
    14   1 H    0.972 --     8 S    0.956
 ---------------------------------------------------------------------------

Topologies differ in total number of bonds
Writing topology from bond orders to xtbtopo.mol

molecular dipole:
                 x           y           z       tot (Debye)
 q only:       -0.337      -0.082       0.031
   full:       -0.564      -0.081       0.114       1.477
molecular quadrupole (traceless):
                xx          xy          yy          xz          yz          zz
 q only:       -0.256      -4.973      -1.972      -6.532       1.344       2.228
  q+dip:       -2.306      -7.376      -2.301      -9.378       3.959       4.607
   full:       -2.332      -7.716      -2.048      -9.288       2.649       4.380

           -------------------------------------------------
          |                Geometry Summary                 |
           -------------------------------------------------

      molecular mass/u    :      126.1762522
   center of mass at/Å    :        0.3950862       0.1166789       0.0038227
  moments of inertia/u·Å² :        0.9019350E+02   0.5106353E+03   0.6008273E+03
rotational constants/cm⁻¹ :        0.1869052E+00   0.3301306E-01   0.2805737E-01

 * 13 selected distances

     #   Z          #   Z                                           value/Å
     1   6 C        2   6 C                                       1.3811638
     2   6 C        3   6 C                                       1.3879594
     3   6 C        4   6 C                                       1.3888262
     4   6 C        5   6 C                                       1.3795901
     1   6 C        6   6 C                                       1.3903240
     5   6 C        6   6 C                                       1.3917665 (max)
     6   6 C        7   8 O                                       1.3602816
     1   6 C        9   1 H                                       1.0818798
     2   6 C       10   1 H                                       1.0791301
     4   6 C       11   1 H                                       1.0804094
     5   6 C       12   1 H                                       1.0780487
     7   8 O       13   1 H                                       0.9649092 (min)
     8  16 S       14   1 H                                       1.3312824

 * 5 distinct bonds (by element types)

   Z      Z             #   av. dist./Å        max./Å        min./Å
   1 H    6 C           4     1.0798670     1.0818798     1.0780487
   6 C    6 C           6     1.3866050     1.3917665     1.3795901
   1 H    8 O           1     0.9649092     0.9649092     0.9649092
   6 C    8 O           1     1.3602816     1.3602816     1.3602816
   1 H   16 S           1     1.3312824     1.3312824     1.3312824


optimized geometry written to: xtbopt.xyz


           -------------------------------------------------
          | TOTAL ENERGY              -23.204062100669 Eh   |
          | GRADIENT NORM               0.000482133832 Eh/α |
          | HOMO-LUMO GAP               3.556237807600 eV   |
           -------------------------------------------------

------------------------------------------------------------------------
 * finished run on 2024/09/17 at 17:31:52.382     
------------------------------------------------------------------------
 total:
 * wall-time:     0 d,  0 h,  0 min,  0.525 sec
 *  cpu-time:     0 d,  0 h,  0 min,  3.288 sec
 * ratio c/w:     6.265 speedup
 SCF:
 * wall-time:     0 d,  0 h,  0 min,  0.030 sec
 *  cpu-time:     0 d,  0 h,  0 min,  0.154 sec
 * ratio c/w:     5.074 speedup
 ANC optimizer:
 * wall-time:     0 d,  0 h,  0 min,  0.232 sec
 *  cpu-time:     0 d,  0 h,  0 min,  1.579 sec
 * ratio c/w:     6.819 speedup

