      -----------------------------------------------------------      
     |                   =====================                   |     
     |                           x T B                           |     
     |                   =====================                   |     
     |                         S. Grimme                         |     
     |          Mulliken Center for Theoretical Chemistry        |     
     |                    University of Bonn                     |     
      -----------------------------------------------------------      

   * xtb version 6.6.0 (conda-forge) compiled by 'runner@Mac-1676020848589.local' on 2023-02-10

   xtb is free software: you can redistribute it and/or modify it under
   the terms of the GNU Lesser General Public License as published by
   the Free Software Foundation, either version 3 of the License, or
   (at your option) any later version.
   
   xtb is distributed in the hope that it will be useful,
   but WITHOUT ANY WARRANTY; without even the implied warranty of
   MERCHANTABILITY or FITNESS FOR A PARTICULAR PURPOSE.  See the
   GNU Lesser General Public License for more details.
   
   Cite this work as:
   * C. Bannwarth, E. Caldeweyher, S. Ehlert, A. Hansen, P. Pracht,
     J. Seibert, S. Spicher, S. Grimme, WIREs Comput. Mol. Sci., 2020, 11,
     e01493. DOI: 10.1002/wcms.1493
   
   for GFN2-xTB:
   * C. Bannwarth, S. Ehlert and S. Grimme., J. Chem. Theory Comput., 2019,
     15, 1652-1671. DOI: 10.1021/acs.jctc.8b01176
   for GFN1-xTB:
   * S. Grimme, C. Bannwarth, P. Shushkov, J. Chem. Theory Comput., 2017,
     13, 1989-2009. DOI: 10.1021/acs.jctc.7b00118
   for GFN0-xTB:
   * P. Pracht, E. Caldeweyher, S. Ehlert, S. Grimme, ChemRxiv, 2019, preprint.
     DOI: 10.26434/chemrxiv.8326202.v1
   for GFN-FF:
   * S. Spicher and S. Grimme, Angew. Chem. Int. Ed., 2020, 59, 15665-15673.
     DOI: 10.1002/anie.202004239
   
   for ALPB and GBSA implicit solvation:
   * S. Ehlert, M. Stahn, S. Spicher, S. Grimme, J. Chem. Theory Comput.,
     2021, 17, 4250-4261. DOI: 10.1021/acs.jctc.1c00471
   
   for DFT-D4:
   * E. Caldeweyher, C. Bannwarth and S. Grimme, J. Chem. Phys., 2017,
     147, 034112. DOI: 10.1063/1.4993215
   * E. Caldeweyher, S. Ehlert, A. Hansen, H. Neugebauer, S. Spicher,
     C. Bannwarth and S. Grimme, J. Chem. Phys., 2019, 150, 154122.
     DOI: 10.1063/1.5090222
   * E. Caldeweyher, J.-M. Mewes, S. Ehlert and S. Grimme, Phys. Chem. Chem. Phys.
     2020, 22, 8499-8512. DOI: 10.1039/D0CP00502A
   
   for sTDA-xTB:
   * S. Grimme and C. Bannwarth, J. Chem. Phys., 2016, 145, 054103.
     DOI: 10.1063/1.4959605
   
   in the mass-spec context:
   * V. Asgeirsson, C. Bauer and S. Grimme, Chem. Sci., 2017, 8, 4879.
     DOI: 10.1039/c7sc00601b
   * J. Koopman and S. Grimme, ACS Omega 2019, 4, 12, 15120-15133.
     DOI: 10.1021/acsomega.9b02011
   
   for metadynamics refer to:
   * S. Grimme, J. Chem. Theory Comput., 2019, 155, 2847-2862
     DOI: 10.1021/acs.jctc.9b00143
   
   for SPH calculations refer to:
   * S. Spicher and S. Grimme, J. Chem. Theory Comput., 2021, 17, 1701-1714
     DOI: 10.1021/acs.jctc.0c01306
   
   with help from (in alphabetical order)
   P. Atkinson, C. Bannwarth, F. Bohle, G. Brandenburg, E. Caldeweyher
   M. Checinski, S. Dohm, S. Ehlert, S. Ehrlich, I. Gerasimov, C. Hölzer
   A. Katbashev, J. Koopman, C. Lavigne, S. Lehtola, F. März, M. Müller,
   F. Musil, H. Neugebauer, J. Pisarek, C. Plett, P. Pracht, F. Pultar,
   J. Seibert, P. Shushkov, S. Spicher, M. Stahn, M. Steiner, T. Strunk,
   J. Stückrath, T. Rose, and J. Unsleber
   
 * started run on 2024/09/17 at 17:36:05.239     

           -------------------------------------------------
          |                Calculation Setup                |
           -------------------------------------------------

          program call               : xtb salicylic_acid.xyz --opt --gfn2
          coordinate file            : salicylic_acid.xyz
          omp threads                :                     8

   ID    Z sym.   atoms
    1    6 C      1-7
    2    8 O      8-10
    3    1 H      11-16

           -------------------------------------------------
          |                 G F N 2 - x T B                 |
           -------------------------------------------------

        Reference                      10.1021/acs.jctc.8b01176
      * Hamiltonian:
        H0-scaling (s, p, d)           1.850000    2.230000    2.230000
        zeta-weighting                 0.500000
      * Dispersion:
        s8                             2.700000
        a1                             0.520000
        a2                             5.000000
        s9                             5.000000
      * Repulsion:
        kExp                           1.500000    1.000000
        rExp                           1.000000
      * Coulomb:
        alpha                          2.000000
        third order                    shell-resolved
        anisotropic                    true
        a3                             3.000000
        a5                             4.000000
        cn-shift                       1.200000
        cn-exp                         4.000000
        max-rad                        5.000000


          ...................................................
          :                      SETUP                      :
          :.................................................:
          :  # basis functions                  46          :
          :  # atomic orbitals                  46          :
          :  # shells                           26          :
          :  # electrons                        52          :
          :  max. iterations                   250          :
          :  Hamiltonian                  GFN2-xTB          :
          :  restarted?                      false          :
          :  GBSA solvation                  false          :
          :  PC potential                    false          :
          :  electronic temp.          300.0000000     K    :
          :  accuracy                    1.0000000          :
          :  -> integral cutoff          0.2500000E+02      :
          :  -> integral neglect         0.1000000E-07      :
          :  -> SCF convergence          0.1000000E-05 Eh   :
          :  -> wf. convergence          0.1000000E-03 e    :
          :  Broyden damping             0.4000000          :
          ...................................................

 iter      E             dE          RMSdq      gap      omega  full diag
   1    -30.5113847 -0.305114E+02  0.526E+00    3.45       0.0  T
   2    -30.5512178 -0.398331E-01  0.290E+00    3.17       1.0  T
   3    -30.5498242  0.139358E-02  0.162E+00    3.28       1.0  T
   4    -30.5607085 -0.108843E-01  0.269E-01    3.14       1.0  T
   5    -30.5610926 -0.384166E-03  0.113E-01    3.16       1.0  T
   6    -30.5611675 -0.748399E-04  0.437E-02    3.17       1.0  T
   7    -30.5611756 -0.807733E-05  0.140E-02    3.17       1.8  T
   8    -30.5611761 -0.543975E-06  0.763E-03    3.17       3.3  T
   9    -30.5611763 -0.252130E-06  0.194E-03    3.17      12.9  T
  10    -30.5611764 -0.170703E-07  0.877E-04    3.17      28.5  T
  11    -30.5611764 -0.518104E-08  0.506E-04    3.17      49.4  T

   *** convergence criteria satisfied after 11 iterations ***

         #    Occupation            Energy/Eh            Energy/eV
      -------------------------------------------------------------
         1        2.0000           -0.7340850             -19.9755
       ...           ...                  ...                  ...
        20        2.0000           -0.4723503             -12.8533
        21        2.0000           -0.4682636             -12.7421
        22        2.0000           -0.4563175             -12.4170
        23        2.0000           -0.4416456             -12.0178
        24        2.0000           -0.4264537             -11.6044
        25        2.0000           -0.4168197             -11.3422
        26        2.0000           -0.3997186             -10.8769 (HOMO)
        27                         -0.2833053              -7.7091 (LUMO)
        28                         -0.2377419              -6.4693
        29                         -0.2154340              -5.8623
        30                         -0.1138510              -3.0980
        31                         -0.0415761              -1.1313
       ...                                ...                  ...
        46                          0.6069984              16.5173
      -------------------------------------------------------------
                  HL-Gap            0.1164133 Eh            3.1678 eV
             Fermi-level           -0.3415119 Eh           -9.2930 eV

 SCC (total)                   0 d,  0 h,  0 min,  0.038 sec
 SCC setup                      ...        0 min,  0.002 sec (  6.446%)
 Dispersion                     ...        0 min,  0.000 sec (  1.057%)
 classical contributions        ...        0 min,  0.000 sec (  0.798%)
 integral evaluation            ...        0 min,  0.002 sec (  5.212%)
 iterations                     ...        0 min,  0.028 sec ( 74.533%)
 molecular gradient             ...        0 min,  0.004 sec ( 10.774%)
 printout                       ...        0 min,  0.000 sec (  1.129%)

         :::::::::::::::::::::::::::::::::::::::::::::::::::::
         ::                     SUMMARY                     ::
         :::::::::::::::::::::::::::::::::::::::::::::::::::::
         :: total energy             -30.223537138382 Eh    ::
         :: gradient norm              0.125340189864 Eh/a0 ::
         :: HOMO-LUMO gap              3.167767409381 eV    ::
         ::.................................................::
         :: SCC energy               -30.561176369063 Eh    ::
         :: -> isotropic ES            0.073090596455 Eh    ::
         :: -> anisotropic ES          0.000676034401 Eh    ::
         :: -> anisotropic XC          0.006079552391 Eh    ::
         :: -> dispersion             -0.012985214372 Eh    ::
         :: repulsion energy           0.337607439238 Eh    ::
         :: add. restraining           0.000000000000 Eh    ::
         :: total charge              -0.000000000000 e     ::
         :::::::::::::::::::::::::::::::::::::::::::::::::::::

      ----------------------------------------------------------- 
     |                   =====================                   |
     |                        A N C O P T                        |
     |                   =====================                   |
     |               Approximate Normal Coordinate               |
     |                Rational Function Optimizer                |
      ----------------------------------------------------------- 

          ...................................................
          :                      SETUP                      :
          :.................................................:
          :   optimization level            normal          :
          :   max. optcycles                   200          :
          :   ANC micro-cycles                  20          :
          :   degrees of freedom                42          :
          :.................................................:
          :   RF solver                   davidson          :
          :   write xtbopt.log                true          :
          :   linear?                        false          :
          :   energy convergence         0.5000000E-05 Eh   :
          :   grad. convergence          0.1000000E-02 Eh/α :
          :   maxmium RF displ.          1.0000000          :
          :   Hlow (freq-cutoff)         0.1000000E-01      :
          :   Hmax (freq-cutoff)         5.0000000          :
          :   S6 in model hess.         20.0000000          :
          ...................................................

generating ANC from model Hessian ...
Using Lindh-Hessian (1995)
 Shifting diagonal of input Hessian by    7.3343959941190090E-003
 Lowest  eigenvalues of input Hessian
    0.000000    0.000000    0.000000    0.000000    0.000000    0.000000
    0.010000    0.013289    0.015683    0.018525    0.023937    0.027446
    0.037394    0.041504    0.052446    0.055797    0.072033    0.087753
 Highest eigenvalues
    1.651454    1.715013    1.808919    1.919154    1.985462    2.067046


........................................................................
.............................. CYCLE    1 ..............................
........................................................................

 iter      E             dE          RMSdq      gap      omega  full diag
   1    -30.5611764 -0.305612E+02  0.993E-05    3.17       0.0  T
   2    -30.5611764 -0.318998E-10  0.614E-05    3.17     406.9  T
   3    -30.5611764 -0.640910E-11  0.392E-05    3.17     637.6  T
     SCC iter.                  ...        0 min,  0.002 sec
     gradient                   ...        0 min,  0.002 sec
 * total energy  :   -30.2235371 Eh     change       -0.8922250E-09 Eh
   gradient norm :     0.1253441 Eh/α   predicted     0.0000000E+00 (-100.00%)
   displ. norm   :     0.3690675 α      lambda       -0.2522217E-01
   maximum displ.:     0.1648805 α      in ANC's #13, #21, #17, ...

........................................................................
.............................. CYCLE    2 ..............................
........................................................................

 iter      E             dE          RMSdq      gap      omega  full diag
   1    -30.6111340 -0.306111E+02  0.352E-01    3.38       0.0  T
   2    -30.6115191 -0.385085E-03  0.221E-01    3.35       1.0  T
   3    -30.6115400 -0.208631E-04  0.118E-01    3.34       1.0  T
   4    -30.6115900 -0.500685E-04  0.272E-02    3.34       1.0  T
   5    -30.6115968 -0.677608E-05  0.833E-03    3.34       3.0  T
   6    -30.6115974 -0.646134E-06  0.385E-03    3.34       6.5  T
   7    -30.6115975 -0.650105E-07  0.129E-03    3.34      19.4  T
   8    -30.6115975 -0.537106E-09  0.754E-04    3.34      33.2  T
   9    -30.6115975 -0.338338E-08  0.151E-04    3.34     165.5  T
     SCC iter.                  ...        0 min,  0.004 sec
     gradient                   ...        0 min,  0.001 sec
 * total energy  :   -30.2417567 Eh     change       -0.1821959E-01 Eh
   gradient norm :     0.0489724 Eh/α   predicted    -0.1432885E-01 ( -21.35%)
   displ. norm   :     0.3599612 α      lambda       -0.9197306E-02
   maximum displ.:     0.1378095 α      in ANC's #13, #7, #1, ...

........................................................................
.............................. CYCLE    3 ..............................
........................................................................

 iter      E             dE          RMSdq      gap      omega  full diag
   1    -30.6349845 -0.306350E+02  0.302E-01    3.40       0.0  T
   2    -30.6351817 -0.197191E-03  0.184E-01    3.40       1.0  T
   3    -30.6351761  0.555597E-05  0.993E-02    3.38       1.0  T
   4    -30.6352275 -0.513959E-04  0.191E-02    3.39       1.3  T
   5    -30.6352307 -0.314782E-05  0.616E-03    3.39       4.1  T
   6    -30.6352308 -0.152922E-06  0.335E-03    3.39       7.5  T
   7    -30.6352309 -0.472747E-07  0.126E-03    3.39      19.8  T
   8    -30.6352309 -0.200355E-08  0.660E-04    3.39      37.9  T
   9    -30.6352309 -0.279938E-08  0.155E-04    3.39     161.3  T
     SCC iter.                  ...        0 min,  0.003 sec
     gradient                   ...        0 min,  0.001 sec
 * total energy  :   -30.2471461 Eh     change       -0.5389401E-02 Eh
   gradient norm :     0.0160129 Eh/α   predicted    -0.5194520E-02 (  -3.62%)
   displ. norm   :     0.3240314 α      lambda       -0.1805671E-02
   maximum displ.:     0.2184549 α      in ANC's #1, #3, #4, ...

........................................................................
.............................. CYCLE    4 ..............................
........................................................................

 iter      E             dE          RMSdq      gap      omega  full diag
   1    -30.6338326 -0.306338E+02  0.197E-01    3.30       0.0  T
   2    -30.6338570 -0.244007E-04  0.115E-01    3.32       1.0  T
   3    -30.6338399  0.170661E-04  0.519E-02    3.31       1.0  T
   4    -30.6338671 -0.271928E-04  0.811E-03    3.32       3.1  T
   5    -30.6338675 -0.393043E-06  0.446E-03    3.32       5.6  T
   6    -30.6338675 -0.386300E-07  0.150E-03    3.32      16.6  T
   7    -30.6338675 -0.211345E-08  0.583E-04    3.32      42.9  T
   8    -30.6338675 -0.357225E-08  0.170E-04    3.32     146.7  T
     SCC iter.                  ...        0 min,  0.003 sec
     gradient                   ...        0 min,  0.001 sec
 * total energy  :   -30.2484127 Eh     change       -0.1266612E-02 Eh
   gradient norm :     0.0184385 Eh/α   predicted    -0.9976325E-03 ( -21.24%)
   displ. norm   :     0.3138443 α      lambda       -0.1221386E-02
   maximum displ.:     0.2478561 α      in ANC's #1, #4, #2, ...

........................................................................
.............................. CYCLE    5 ..............................
........................................................................

 iter      E             dE          RMSdq      gap      omega  full diag
   1    -30.6329322 -0.306329E+02  0.195E-01    3.24       0.0  T
   2    -30.6329515 -0.193471E-04  0.114E-01    3.26       1.0  T
   3    -30.6329330  0.185073E-04  0.447E-02    3.26       1.0  T
   4    -30.6329585 -0.255165E-04  0.703E-03    3.26       3.6  T
   5    -30.6329588 -0.285410E-06  0.366E-03    3.26       6.8  T
   6    -30.6329589 -0.590418E-07  0.157E-03    3.26      15.9  T
   7    -30.6329589 -0.254308E-08  0.532E-04    3.26      47.0  T
   8    -30.6329589 -0.119554E-08  0.215E-04    3.26     116.1  T
     SCC iter.                  ...        0 min,  0.004 sec
     gradient                   ...        0 min,  0.001 sec
 * total energy  :   -30.2492585 Eh     change       -0.8457242E-03 Eh
   gradient norm :     0.0173618 Eh/α   predicted    -0.6708463E-03 ( -20.68%)
   displ. norm   :     0.2760560 α      lambda       -0.9423643E-03
   maximum displ.:     0.2467331 α      in ANC's #1, #4, #8, ...

........................................................................
.............................. CYCLE    6 ..............................
........................................................................

 iter      E             dE          RMSdq      gap      omega  full diag
   1    -30.6337580 -0.306338E+02  0.132E-01    3.27       0.0  T
   2    -30.6337672 -0.914472E-05  0.769E-02    3.26       1.0  T
   3    -30.6337597  0.753516E-05  0.265E-02    3.27       1.0  T
   4    -30.6337693 -0.968472E-05  0.527E-03    3.26       4.7  T
   5    -30.6337696 -0.303423E-06  0.232E-03    3.26      10.8  T
   6    -30.6337697 -0.199976E-07  0.127E-03    3.26      19.6  T
   7    -30.6337697 -0.309389E-08  0.321E-04    3.26      78.0  T
   8    -30.6337697 -0.335277E-09  0.139E-04    3.26     179.3  T
     SCC iter.                  ...        0 min,  0.003 sec
     gradient                   ...        0 min,  0.001 sec
 * total energy  :   -30.2498722 Eh     change       -0.6137299E-03 Eh
   gradient norm :     0.0110516 Eh/α   predicted    -0.5070892E-03 ( -17.38%)
   displ. norm   :     0.2669626 α      lambda       -0.5824864E-03
   maximum displ.:     0.2159857 α      in ANC's #1, #4, #3, ...

........................................................................
.............................. CYCLE    7 ..............................
........................................................................

 iter      E             dE          RMSdq      gap      omega  full diag
   1    -30.6331932 -0.306332E+02  0.169E-01    3.22       0.0  T
   2    -30.6332125 -0.192347E-04  0.101E-01    3.24       1.0  T
   3    -30.6332110  0.150575E-05  0.205E-02    3.24       1.2  T
   4    -30.6332130 -0.198542E-05  0.826E-03    3.24       3.0  T
   5    -30.6332138 -0.817289E-06  0.270E-03    3.24       9.2  T
   6    -30.6332138 -0.575588E-08  0.880E-04    3.24      28.4  T
   7    -30.6332138 -0.215645E-08  0.420E-04    3.24      59.6  T
     SCC iter.                  ...        0 min,  0.003 sec
     gradient                   ...        0 min,  0.001 sec
 * total energy  :   -30.2500874 Eh     change       -0.2152588E-03 Eh
   gradient norm :     0.0193655 Eh/α   predicted    -0.3119976E-03 (  44.94%)
   displ. norm   :     0.1187092 α      lambda       -0.3820923E-03
   maximum displ.:     0.1084584 α      in ANC's #1, #2, #8, ...

........................................................................
.............................. CYCLE    8 ..............................
........................................................................

 iter      E             dE          RMSdq      gap      omega  full diag
   1    -30.6356277 -0.306356E+02  0.610E-02    3.27       0.0  T
   2    -30.6356405 -0.127797E-04  0.351E-02    3.25       1.0  T
   3    -30.6356406 -0.877774E-07  0.156E-02    3.25       1.6  T
   4    -30.6356407 -0.136836E-06  0.373E-03    3.25       6.7  T
   5    -30.6356409 -0.185237E-06  0.108E-03    3.25      23.1  T
   6    -30.6356409 -0.628081E-08  0.630E-04    3.25      39.7  T
   7    -30.6356409 -0.179315E-08  0.200E-04    3.25     125.1  T
     SCC iter.                  ...        0 min,  0.003 sec
     gradient                   ...        0 min,  0.001 sec
 * total energy  :   -30.2503150 Eh     change       -0.2275927E-03 Eh
   gradient norm :     0.0096151 Eh/α   predicted    -0.1937386E-03 ( -14.87%)
   displ. norm   :     0.0968183 α      lambda       -0.1773427E-03
   maximum displ.:     0.0743384 α      in ANC's #1, #4, #2, ...

........................................................................
.............................. CYCLE    9 ..............................
........................................................................

 iter      E             dE          RMSdq      gap      omega  full diag
   1    -30.6357627 -0.306358E+02  0.675E-02    3.25       0.0  T
   2    -30.6357673 -0.461871E-05  0.405E-02    3.25       1.0  T
   3    -30.6357666  0.668390E-06  0.139E-02    3.25       1.8  T
   4    -30.6357679 -0.121085E-05  0.315E-03    3.25       7.9  T
   5    -30.6357680 -0.112482E-06  0.141E-03    3.25      17.8  T
   6    -30.6357680 -0.122153E-07  0.748E-04    3.25      33.4  T
   7    -30.6357680 -0.128204E-08  0.222E-04    3.25     112.5  T
     SCC iter.                  ...        0 min,  0.003 sec
     gradient                   ...        0 min,  0.001 sec
 * total energy  :   -30.2504232 Eh     change       -0.1081372E-03 Eh
   gradient norm :     0.0055729 Eh/α   predicted    -0.8950412E-04 ( -17.23%)
   displ. norm   :     0.1701419 α      lambda       -0.2594707E-03
   maximum displ.:     0.1065190 α      in ANC's #1, #2, #3, ...

........................................................................
.............................. CYCLE   10 ..............................
........................................................................

 iter      E             dE          RMSdq      gap      omega  full diag
   1    -30.6381913 -0.306382E+02  0.112E-01    3.27       0.0  T
   2    -30.6381953 -0.397596E-05  0.656E-02    3.26       1.0  T
   3    -30.6381937  0.160420E-05  0.139E-02    3.26       1.8  T
   4    -30.6381961 -0.247105E-05  0.353E-03    3.26       7.1  T
   5    -30.6381962 -0.670928E-07  0.195E-03    3.26      12.8  T
   6    -30.6381962 -0.233056E-07  0.988E-04    3.26      25.3  T
   7    -30.6381962 -0.201963E-08  0.227E-04    3.26     110.1  T
     SCC iter.                  ...        0 min,  0.006 sec
     gradient                   ...        0 min,  0.001 sec
 * total energy  :   -30.2505281 Eh     change       -0.1049617E-03 Eh
   gradient norm :     0.0102851 Eh/α   predicted    -0.1334916E-03 (  27.18%)
   displ. norm   :     0.1450164 α      lambda       -0.1603892E-03
   maximum displ.:     0.1031048 α      in ANC's #1, #4, #2, ...

........................................................................
.............................. CYCLE   11 ..............................
........................................................................

 iter      E             dE          RMSdq      gap      omega  full diag
   1    -30.6353400 -0.306353E+02  0.932E-02    3.22       0.0  T
   2    -30.6353454 -0.544726E-05  0.563E-02    3.23       1.0  T
   3    -30.6353428  0.256467E-05  0.181E-02    3.23       1.4  T
   4    -30.6353467 -0.384771E-05  0.326E-03    3.23       7.7  T
   5    -30.6353467 -0.536727E-07  0.193E-03    3.23      13.0  T
   6    -30.6353468 -0.180107E-07  0.835E-04    3.23      29.9  T
   7    -30.6353468 -0.166483E-08  0.242E-04    3.23     103.4  T
     SCC iter.                  ...        0 min,  0.003 sec
     gradient                   ...        0 min,  0.002 sec
 * total energy  :   -30.2506009 Eh     change       -0.7275006E-04 Eh
   gradient norm :     0.0101224 Eh/α   predicted    -0.8188031E-04 (  12.55%)
   displ. norm   :     0.0459702 α      lambda       -0.2070183E-03
   maximum displ.:     0.0168569 α      in ANC's #14, #3, #1, ...

........................................................................
.............................. CYCLE   12 ..............................
........................................................................

 iter      E             dE          RMSdq      gap      omega  full diag
   1    -30.6346396 -0.306346E+02  0.574E-02    3.25       0.0  T
   2    -30.6346562 -0.166661E-04  0.306E-02    3.25       1.0  T
   3    -30.6346575 -0.128712E-05  0.172E-02    3.25       1.5  T
   4    -30.6346577 -0.214790E-06  0.549E-03    3.25       4.6  T
   5    -30.6346580 -0.210117E-06  0.152E-03    3.25      16.5  T
   6    -30.6346580 -0.214882E-07  0.745E-04    3.25      33.6  T
   7    -30.6346580 -0.960124E-09  0.319E-04    3.25      78.3  T
     SCC iter.                  ...        0 min,  0.003 sec
     gradient                   ...        0 min,  0.001 sec
 * total energy  :   -30.2507045 Eh     change       -0.1036201E-03 Eh
   gradient norm :     0.0083843 Eh/α   predicted    -0.1037297E-03 (   0.11%)
   displ. norm   :     0.0879225 α      lambda       -0.1182116E-03
   maximum displ.:     0.0483049 α      in ANC's #2, #4, #1, ...

........................................................................
.............................. CYCLE   13 ..............................
........................................................................

 iter      E             dE          RMSdq      gap      omega  full diag
   1    -30.6347948 -0.306348E+02  0.605E-02    3.24       0.0  T
   2    -30.6347962 -0.137035E-05  0.354E-02    3.24       1.0  T
   3    -30.6347951  0.106291E-05  0.111E-02    3.24       2.3  T
   4    -30.6347966 -0.147782E-05  0.220E-03    3.24      11.4  T
   5    -30.6347966 -0.245338E-07  0.112E-03    3.24      22.4  T
   6    -30.6347966 -0.252860E-08  0.571E-04    3.24      43.8  T
   7    -30.6347966 -0.764526E-09  0.147E-04    3.24     170.3  T
     SCC iter.                  ...        0 min,  0.002 sec
     gradient                   ...        0 min,  0.001 sec
 * total energy  :   -30.2507988 Eh     change       -0.9430559E-04 Eh
   gradient norm :     0.0067610 Eh/α   predicted    -0.5956239E-04 ( -36.84%)
   displ. norm   :     0.2039570 α      lambda       -0.1867235E-03
   maximum displ.:     0.1051775 α      in ANC's #2, #4, #1, ...

........................................................................
.............................. CYCLE   14 ..............................
........................................................................

 iter      E             dE          RMSdq      gap      omega  full diag
   1    -30.6347569 -0.306348E+02  0.143E-01    3.22       0.0  T
   2    -30.6347622 -0.529436E-05  0.844E-02    3.22       1.0  T
   3    -30.6347559  0.629560E-05  0.249E-02    3.22       1.0  T
   4    -30.6347644 -0.856458E-05  0.468E-03    3.23       5.3  T
   5    -30.6347645 -0.444252E-07  0.259E-03    3.23       9.6  T
   6    -30.6347645 -0.229834E-07  0.120E-03    3.22      20.8  T
   7    -30.6347645 -0.245098E-08  0.291E-04    3.22      85.9  T
   8    -30.6347645 -0.115551E-08  0.841E-05    3.22     297.2  T
     SCC iter.                  ...        0 min,  0.003 sec
     gradient                   ...        0 min,  0.001 sec
 * total energy  :   -30.2509064 Eh     change       -0.1076184E-03 Eh
   gradient norm :     0.0080317 Eh/α   predicted    -0.9724586E-04 (  -9.64%)
   displ. norm   :     0.0383778 α      lambda       -0.6766476E-04
   maximum displ.:     0.0169859 α      in ANC's #4, #9, #3, ...

........................................................................
.............................. CYCLE   15 ..............................
........................................................................

 iter      E             dE          RMSdq      gap      omega  full diag
   1    -30.6361748 -0.306362E+02  0.325E-02    3.24       0.0  T
   2    -30.6361765 -0.166775E-05  0.191E-02    3.23       1.3  T
   3    -30.6361764  0.977374E-07  0.981E-03    3.23       2.5  T
   4    -30.6361769 -0.526401E-06  0.169E-03    3.23      14.8  T
   5    -30.6361769 -0.297964E-07  0.840E-04    3.23      29.8  T
   6    -30.6361769 -0.352039E-08  0.426E-04    3.23      58.6  T
     SCC iter.                  ...        0 min,  0.003 sec
     gradient                   ...        0 min,  0.001 sec
 * total energy  :   -30.2509475 Eh     change       -0.4105948E-04 Eh
   gradient norm :     0.0033814 Eh/α   predicted    -0.3388074E-04 ( -17.48%)
   displ. norm   :     0.1068541 α      lambda       -0.5429119E-04
   maximum displ.:     0.0640348 α      in ANC's #4, #1, #2, ...

........................................................................
.............................. CYCLE   16 ..............................
........................................................................

 iter      E             dE          RMSdq      gap      omega  full diag
   1    -30.6359059 -0.306359E+02  0.802E-02    3.22       0.0  T
   2    -30.6359069 -0.999261E-06  0.476E-02    3.23       1.0  T
   3    -30.6359061  0.764629E-06  0.885E-03    3.23       2.8  T
   4    -30.6359073 -0.112806E-05  0.232E-03    3.23      10.8  T
   5    -30.6359073 -0.162412E-07  0.123E-03    3.23      20.3  T
   6    -30.6359073 -0.627875E-09  0.429E-04    3.23      58.2  T
   7    -30.6359073 -0.139332E-08  0.137E-04    3.23     182.3  T
     SCC iter.                  ...        0 min,  0.003 sec
     gradient                   ...        0 min,  0.001 sec
 * total energy  :   -30.2509813 Eh     change       -0.3379783E-04 Eh
   gradient norm :     0.0049346 Eh/α   predicted    -0.2745497E-04 ( -18.77%)
   displ. norm   :     0.0438204 α      lambda       -0.3556488E-04
   maximum displ.:     0.0292815 α      in ANC's #4, #2, #28, ...

........................................................................
.............................. CYCLE   17 ..............................
........................................................................

 iter      E             dE          RMSdq      gap      omega  full diag
   1    -30.6362745 -0.306363E+02  0.413E-02    3.23       0.0  T
   2    -30.6362748 -0.290123E-06  0.242E-02    3.23       1.0  T
   3    -30.6362746  0.107775E-06  0.402E-03    3.23       6.2  T
   4    -30.6362748 -0.190586E-06  0.110E-03    3.23      22.8  T
   5    -30.6362748 -0.321877E-08  0.633E-04    3.23      39.5  T
   6    -30.6362748 -0.867892E-09  0.293E-04    3.23      85.3  T
     SCC iter.                  ...        0 min,  0.004 sec
     gradient                   ...        0 min,  0.001 sec
 * total energy  :   -30.2510075 Eh     change       -0.2616951E-04 Eh
   gradient norm :     0.0035014 Eh/α   predicted    -0.1781681E-04 ( -31.92%)
   displ. norm   :     0.0754553 α      lambda       -0.3948605E-04
   maximum displ.:     0.0495534 α      in ANC's #4, #2, #28, ...

........................................................................
.............................. CYCLE   18 ..............................
........................................................................

 iter      E             dE          RMSdq      gap      omega  full diag
   1    -30.6361029 -0.306361E+02  0.661E-02    3.23       0.0  T
   2    -30.6361037 -0.772805E-06  0.387E-02    3.23       1.0  T
   3    -30.6361035  0.134667E-06  0.527E-03    3.23       4.7  T
   4    -30.6361038 -0.308898E-06  0.186E-03    3.23      13.4  T
   5    -30.6361039 -0.226804E-07  0.104E-03    3.23      24.0  T
   6    -30.6361039 -0.613909E-09  0.433E-04    3.23      57.8  T
   7    -30.6361039 -0.190078E-08  0.651E-05    3.23     384.0  T
     SCC iter.                  ...        0 min,  0.003 sec
     gradient                   ...        0 min,  0.001 sec
 * total energy  :   -30.2510354 Eh     change       -0.2794325E-04 Eh
   gradient norm :     0.0025580 Eh/α   predicted    -0.1985559E-04 ( -28.94%)
   displ. norm   :     0.0573753 α      lambda       -0.2732479E-04
   maximum displ.:     0.0334696 α      in ANC's #4, #2, #1, ...

........................................................................
.............................. CYCLE   19 ..............................
........................................................................

 iter      E             dE          RMSdq      gap      omega  full diag
   1    -30.6362909 -0.306363E+02  0.495E-02    3.24       0.0  T
   2    -30.6362913 -0.359595E-06  0.290E-02    3.23       1.0  T
   3    -30.6362911  0.221624E-06  0.456E-03    3.23       5.5  T
   4    -30.6362914 -0.326840E-06  0.125E-03    3.23      20.0  T
   5    -30.6362914 -0.912007E-08  0.695E-04    3.23      35.9  T
   6    -30.6362914 -0.185967E-09  0.281E-04    3.23      89.1  T
     SCC iter.                  ...        0 min,  0.002 sec
     gradient                   ...        0 min,  0.001 sec
 * total energy  :   -30.2510528 Eh     change       -0.1742092E-04 Eh
   gradient norm :     0.0018096 Eh/α   predicted    -0.1370691E-04 ( -21.32%)
   displ. norm   :     0.1059019 α      lambda       -0.1373269E-04
   maximum displ.:     0.0675112 α      in ANC's #4, #2, #28, ...

........................................................................
.............................. CYCLE   20 ..............................
........................................................................

 iter      E             dE          RMSdq      gap      omega  full diag
   1    -30.6355230 -0.306355E+02  0.854E-02    3.22       0.0  T
   2    -30.6355241 -0.111010E-05  0.504E-02    3.22       1.0  T
   3    -30.6355236  0.497014E-06  0.854E-03    3.22       2.9  T
   4    -30.6355245 -0.923258E-06  0.226E-03    3.23      11.1  T
   5    -30.6355245  0.148138E-09  0.143E-03    3.23      17.5  T
   6    -30.6355246 -0.135118E-07  0.313E-04    3.22      80.0  T
   7    -30.6355246 -0.265114E-09  0.837E-05    3.23     298.9  T
     SCC iter.                  ...        0 min,  0.003 sec
     gradient                   ...        0 min,  0.001 sec
 * total energy  :   -30.2510548 Eh     change       -0.1944974E-05 Eh
   gradient norm :     0.0032774 Eh/α   predicted    -0.6899789E-05 ( 254.75%)
   displ. norm   :     0.0353949 α      lambda       -0.1647240E-04
   maximum displ.:     0.0222497 α      in ANC's #1, #4, #2, ...
 * RMSD in coord.:     0.6085387 α      energy gain  -0.2751763E-01 Eh

generating ANC from model Hessian ...
Using Lindh-Hessian (1995)
 Shifting diagonal of input Hessian by    6.3869284874864957E-003
 Lowest  eigenvalues of input Hessian
    0.000000    0.000000    0.000000    0.000000    0.000000    0.000000
    0.010000    0.014831    0.018772    0.026519    0.026946    0.028628
    0.043970    0.056316    0.061694    0.064545    0.079602    0.095987
 Highest eigenvalues
    1.762262    1.812237    1.897009    2.021695    2.109643    2.372260


........................................................................
.............................. CYCLE   21 ..............................
........................................................................

 iter      E             dE          RMSdq      gap      omega  full diag
   1    -30.6362239 -0.306362E+02  0.261E-02    3.24       0.0  T
   2    -30.6362245 -0.613345E-06  0.160E-02    3.23       1.6  T
   3    -30.6362243  0.217380E-06  0.602E-03    3.23       4.1  T
   4    -30.6362247 -0.366953E-06  0.104E-03    3.23      24.0  T
   5    -30.6362247 -0.576007E-08  0.599E-04    3.23      41.7  T
   6    -30.6362247 -0.164632E-08  0.265E-04    3.23      94.2  T
     SCC iter.                  ...        0 min,  0.002 sec
     gradient                   ...        0 min,  0.001 sec
 * total energy  :   -30.2510624 Eh     change       -0.7677783E-05 Eh
   gradient norm :     0.0015215 Eh/α   predicted     0.0000000E+00 (-100.00%)
   displ. norm   :     0.0073407 α      lambda       -0.2000223E-05
   maximum displ.:     0.0047515 α      in ANC's #1, #3, #19, ...

........................................................................
.............................. CYCLE   22 ..............................
........................................................................

 iter      E             dE          RMSdq      gap      omega  full diag
   1    -30.6362832 -0.306363E+02  0.717E-03    3.23       0.0  T
   2    -30.6362834 -0.220194E-06  0.419E-03    3.23       6.0  T
   3    -30.6362834 -0.863898E-08  0.229E-03    3.23      10.9  T
   4    -30.6362834 -0.770694E-09  0.798E-04    3.23      31.3  T
   5    -30.6362834 -0.982594E-08  0.137E-04    3.23     181.9  T
     SCC iter.                  ...        0 min,  0.001 sec
     gradient                   ...        0 min,  0.001 sec
 * total energy  :   -30.2510641 Eh     change       -0.1614295E-05 Eh
   gradient norm :     0.0003694 Eh/α   predicted    -0.1000688E-05 ( -38.01%)
   displ. norm   :     0.0047343 α      lambda       -0.4367089E-06
   maximum displ.:     0.0025701 α      in ANC's #3, #1, #7, ...

   *** GEOMETRY OPTIMIZATION CONVERGED AFTER 22 ITERATIONS ***

------------------------------------------------------------------------
 total energy gain   :        -0.0275269 Eh      -17.2734 kcal/mol
 total RMSD          :         0.6090293 a0        0.3223 Å
 total power (kW/mol):        -3.2850878 (step) -541.3750 (real)
------------------------------------------------------------------------

 ANCopt (total)                0 d,  0 h,  0 min,  0.134 sec
 optimizer setup                ...        0 min,  0.001 sec (  0.437%)
 model hessian                  ...        0 min,  0.005 sec (  3.512%)
 ANC generation                 ...        0 min,  0.004 sec (  2.948%)
 coordinate transformation      ...        0 min,  0.000 sec (  0.074%)
 single point calculation       ...        0 min,  0.106 sec ( 79.370%)
 optimization log               ...        0 min,  0.002 sec (  1.362%)
 hessian update                 ...        0 min,  0.000 sec (  0.330%)
 rational function              ...        0 min,  0.014 sec ( 10.811%)

================
 final structure:
================
16
 xtb: 6.6.0 (conda-forge)
C           -1.91356218001734       -0.69916550549698       -0.59982957675591
C           -2.20132887379484        0.58807031683977       -0.15950834564629
C           -1.19832874944164        1.39860971205153        0.32280584420084
C            0.12424026252449        0.95162166264964        0.38255363213348
C            0.42016945156816       -0.34963146109070       -0.06058149323768
C           -0.61759999689432       -1.15503345993472       -0.54791842757865
C            1.75931114144599       -0.95583891230911       -0.05600422217937
O            2.01237457333396       -2.07109291342609       -0.43610003038634
O            2.75335713515841       -0.15617958602479        0.42235642441260
O            1.03352747522072        1.81255554509249        0.86745462885404
H           -2.69922456936874       -1.33399790191882       -0.97808505546345
H           -3.21507387671962        0.95782840891663       -0.19473211811862
H           -1.40270079260595        2.39983556125669        0.66796068293319
H           -0.36072402518443       -2.14898340243339       -0.88138421378853
H            3.59263355669146       -0.64076964865729        0.38502732676130
H            1.91282946808371        1.40217158448518        0.86598494385939

 Bond Distances (Angstroems)
 ---------------------------
C1-C2=1.3906         C1-C6=1.3748         C1-H11=1.0786        C2-C1=1.3906         C2-C3=1.3768         C2-H12=1.0796        
C3-C2=1.3768         C3-C4=1.3973         C3-H13=1.0786        C4-C3=1.3973         C4-C5=1.4061         C4-O10=1.3428        
C5-C4=1.4061         C5-C6=1.4011         C5-C7=1.4700         C6-C1=1.3748         C6-C5=1.4011         C6-H14=1.0794        
C7-C5=1.4700         C7-O8=1.2051         C7-O9=1.3625         O8-C7=1.2051         O9-C7=1.3625         O9-H15=0.9698        
O10-C4=1.3428        O10-H16=0.9704       H11-C1=1.0786        H12-C2=1.0796        H13-C3=1.0786        H14-C6=1.0794        
H15-O9=0.9698        H16-O10=0.9704       
 C  H  Rav=1.0791 sigma=0.0005  Rmin=1.0786  Rmax=1.0796     4
 C  C  Rav=1.4024 sigma=0.0297  Rmin=1.3748  Rmax=1.4700     7
 O  H  Rav=0.9701 sigma=0.0003  Rmin=0.9698  Rmax=0.9704     2
 O  C  Rav=1.3035 sigma=0.0700  Rmin=1.2051  Rmax=1.3625     3

 selected bond angles (degree)
 --------------------
C6-C1-C2=119.35                H11-C1-C2=120.34               H11-C1-C6=120.31               C3-C2-C1=120.34                
H12-C2-C1=120.07               H12-C2-C3=119.59               C4-C3-C2=121.08                H13-C3-C2=121.37               
H13-C3-C4=117.56               C5-C4-C3=118.80                O10-C4-C3=116.82               O10-C4-C5=124.38               
C6-C5-C4=119.06                C7-C5-C4=124.92                C7-C5-C6=116.03                C5-C6-C1=121.38                
H14-C6-C1=121.20               H14-C6-C5=117.42               O8-C7-C5=124.89                O9-C7-C5=115.07                
O9-C7-O8=120.04                H15-O9-C7=108.94               H16-O10-C4=109.99              

 selected dihedral angles (degree)
 ---------------------------------
C3-C2-C1-C6=  0.05            C3-C2-C1-H11=180.03           H12-C2-C1-C6=180.02           H12-C2-C1-H11=  0.00          
C4-C3-C2-C1=359.96            C4-C3-C2-H12=179.99           H13-C3-C2-C1=179.96           H13-C3-C2-H12=  0.00          
C5-C4-C3-C2=  0.00            C5-C4-C3-H13=179.99           O10-C4-C3-C2=179.99           O10-C4-C3-H13=  0.00          
C6-C5-C4-C3=  0.05            C6-C5-C4-O10=180.05           C7-C5-C4-C3=180.11            C7-C5-C4-O10=  0.11           
C5-C6-C1-C2=  0.00            C5-C6-C1-H11=180.01           H14-C6-C1-C2=179.97           H14-C6-C1-H11=  0.00          
C1-C6-C5-C4=359.96            C1-C6-C5-C7=179.90            H14-C6-C5-C4=179.98           H14-C6-C5-C7=359.92           
O8-C7-C5-C4=180.01            O8-C7-C5-C6=  0.07            O9-C7-C5-C4=  0.00            O9-C7-C5-C6=180.04            
H15-O9-C7-C5=180.02           H15-O9-C7-O8=  0.00           H16-O10-C4-C3=179.89          H16-O10-C4-C5=359.89          
           -------------------------------------------------
          |                Final Singlepoint                |
           -------------------------------------------------

          ...................................................
          :                      SETUP                      :
          :.................................................:
          :  # basis functions                  46          :
          :  # atomic orbitals                  46          :
          :  # shells                           26          :
          :  # electrons                        52          :
          :  max. iterations                   250          :
          :  Hamiltonian                  GFN2-xTB          :
          :  restarted?                      false          :
          :  GBSA solvation                  false          :
          :  PC potential                    false          :
          :  electronic temp.          300.0000000     K    :
          :  accuracy                    1.0000000          :
          :  -> integral cutoff          0.2500000E+02      :
          :  -> integral neglect         0.1000000E-07      :
          :  -> SCF convergence          0.1000000E-05 Eh   :
          :  -> wf. convergence          0.1000000E-03 e    :
          :  Broyden damping             0.4000000          :
          ...................................................

 iter      E             dE          RMSdq      gap      omega  full diag
   1    -30.6362834 -0.306363E+02  0.591E-05    3.23       0.0  T
   2    -30.6362834 -0.481748E-11  0.379E-05    3.23     660.1  T
   3    -30.6362834 -0.355271E-14  0.230E-05    3.23    1088.7  T

   *** convergence criteria satisfied after 3 iterations ***

         #    Occupation            Energy/Eh            Energy/eV
      -------------------------------------------------------------
         1        2.0000           -0.7542707             -20.5248
       ...           ...                  ...                  ...
        20        2.0000           -0.4860546             -13.2262
        21        2.0000           -0.4731633             -12.8754
        22        2.0000           -0.4540397             -12.3550
        23        2.0000           -0.4384625             -11.9312
        24        2.0000           -0.4264258             -11.6036
        25        2.0000           -0.4226999             -11.5023
        26        2.0000           -0.3981592             -10.8345 (HOMO)
        27                         -0.2793780              -7.6023 (LUMO)
        28                         -0.2297648              -6.2522
        29                         -0.1948757              -5.3028
        30                         -0.0934091              -2.5418
        31                          0.0267309               0.7274
       ...                                ...                  ...
        46                          0.6707881              18.2531
      -------------------------------------------------------------
                  HL-Gap            0.1187812 Eh            3.2322 eV
             Fermi-level           -0.3387686 Eh           -9.2184 eV

 SCC (total)                   0 d,  0 h,  0 min,  0.003 sec
 SCC setup                      ...        0 min,  0.000 sec (  1.695%)
 Dispersion                     ...        0 min,  0.000 sec (  2.016%)
 classical contributions        ...        0 min,  0.000 sec (  0.498%)
 integral evaluation            ...        0 min,  0.000 sec ( 14.151%)
 iterations                     ...        0 min,  0.001 sec ( 51.577%)
 molecular gradient             ...        0 min,  0.001 sec ( 28.192%)
 printout                       ...        0 min,  0.000 sec (  1.552%)

         :::::::::::::::::::::::::::::::::::::::::::::::::::::
         ::                     SUMMARY                     ::
         :::::::::::::::::::::::::::::::::::::::::::::::::::::
         :: total energy             -30.251064063931 Eh    ::
         :: gradient norm              0.000370105323 Eh/a0 ::
         :: HOMO-LUMO gap              3.232200922363 eV    ::
         ::.................................................::
         :: SCC energy               -30.636283430730 Eh    ::
         :: -> isotropic ES            0.067276989159 Eh    ::
         :: -> anisotropic ES         -0.000426771784 Eh    ::
         :: -> anisotropic XC          0.004683434323 Eh    ::
         :: -> dispersion             -0.013191954042 Eh    ::
         :: repulsion energy           0.385191593742 Eh    ::
         :: add. restraining           0.000000000000 Eh    ::
         :: total charge              -0.000000000000 e     ::
         :::::::::::::::::::::::::::::::::::::::::::::::::::::

           -------------------------------------------------
          |                Property Printout                |
           -------------------------------------------------

    * Orbital Energies and Occupations

         #    Occupation            Energy/Eh            Energy/eV
      -------------------------------------------------------------
         1        2.0000           -0.7542707             -20.5248
       ...           ...                  ...                  ...
        14        2.0000           -0.5441019             -14.8058
        15        2.0000           -0.5364990             -14.5989
        16        2.0000           -0.5231799             -14.2364
        17        2.0000           -0.5049777             -13.7411
        18        2.0000           -0.4923332             -13.3971
        19        2.0000           -0.4879003             -13.2764
        20        2.0000           -0.4860546             -13.2262
        21        2.0000           -0.4731633             -12.8754
        22        2.0000           -0.4540397             -12.3550
        23        2.0000           -0.4384625             -11.9312
        24        2.0000           -0.4264258             -11.6036
        25        2.0000           -0.4226999             -11.5023
        26        2.0000           -0.3981592             -10.8345 (HOMO)
        27                         -0.2793780              -7.6023 (LUMO)
        28                         -0.2297648              -6.2522
        29                         -0.1948757              -5.3028
        30                         -0.0934091              -2.5418
        31                          0.0267309               0.7274
        32                          0.0850389               2.3140
        33                          0.1104265               3.0049
        34                          0.1370784               3.7301
        35                          0.1555400               4.2325
        36                          0.1692270               4.6049
        37                          0.1739749               4.7341
       ...                                ...                  ...
        46                          0.6707881              18.2531
      -------------------------------------------------------------
                  HL-Gap            0.1187812 Eh            3.2322 eV
             Fermi-level           -0.3387686 Eh           -9.2184 eV

     #   Z          covCN         q      C6AA      α(0)
     1   6 C        2.916    -0.039    28.958     8.824
     2   6 C        2.920    -0.020    28.510     8.756
     3   6 C        2.919    -0.053    29.320     8.880
     4   6 C        2.842     0.162    24.498     8.112
     5   6 C        2.967    -0.062    29.527     8.913
     6   6 C        2.929    -0.021    28.540     8.761
     7   6 C        2.699     0.352    21.018     7.504
     8   8 O        0.857    -0.415    21.979     6.286
     9   8 O        1.658    -0.409    21.019     6.189
    10   8 O        1.660    -0.378    20.426     6.101
    11   1 H        0.926     0.046     2.376     2.411
    12   1 H        0.926     0.048     2.346     2.395
    13   1 H        0.926     0.060     2.198     2.318
    14   1 H        0.926     0.066     2.124     2.279
    15   1 H        0.804     0.329     0.640     1.257
    16   1 H        0.804     0.333     0.629     1.246

 Mol. C6AA /au·bohr⁶  :       3326.718028
 Mol. C8AA /au·bohr⁸  :      80458.367526
 Mol. α(0) /au        :         90.231522


Wiberg/Mayer (AO) data.
largest (>0.10) Wiberg bond orders for each atom

 ---------------------------------------------------------------------------
     #   Z sym  total        # sym  WBO       # sym  WBO       # sym  WBO
 ---------------------------------------------------------------------------
     1   6 C    3.991 --     6 C    1.485     2 C    1.391    11 H    0.970
     2   6 C    3.991 --     3 C    1.480     1 C    1.391    12 H    0.970
     3   6 C    3.988 --     2 C    1.480     4 C    1.343    13 H    0.967
                             6 C    0.108
     4   6 C    3.945 --     3 C    1.343     5 C    1.310    10 O    1.129
     5   6 C    3.978 --     6 C    1.352     4 C    1.310     7 C    1.047
     6   6 C    3.987 --     1 C    1.485     5 C    1.352    14 H    0.965
                             3 C    0.108
     7   6 C    3.914 --     8 O    1.735     9 O    1.069     5 C    1.047
     8   8 O    2.039 --     7 C    1.735     9 O    0.155
     9   8 O    2.168 --     7 C    1.069    15 H    0.863     8 O    0.155
    10   8 O    2.173 --     4 C    1.129    16 H    0.840
    11   1 H    0.997 --     1 C    0.970
    12   1 H    0.997 --     2 C    0.970
    13   1 H    0.996 --     3 C    0.967
    14   1 H    0.996 --     6 C    0.965
    15   1 H    0.891 --     9 O    0.863
    16   1 H    0.889 --    10 O    0.840
 ---------------------------------------------------------------------------

Topologies differ in total number of bonds
Writing topology from bond orders to xtbtopo.mol

molecular dipole:
                 x           y           z       tot (Debye)
 q only:       -0.204       0.539       0.170
   full:        0.099       0.408       0.174       1.156
molecular quadrupole (traceless):
                xx          xy          yy          xz          yz          zz
 q only:        9.220       3.660      -7.676       3.259      -1.720      -1.544
  q+dip:       13.475       2.021      -9.611       3.792      -1.839      -3.864
   full:       12.345       2.733     -10.695       3.378      -3.194      -1.649

           -------------------------------------------------
          |                Geometry Summary                 |
           -------------------------------------------------

      molecular mass/u    :      138.1210106
   center of mass at/Å    :        0.3405062      -0.0626471       0.0354259
  moments of inertia/u·Å² :        0.2143878E+03   0.4145396E+03   0.6289271E+03
rotational constants/cm⁻¹ :        0.7863150E-01   0.4066592E-01   0.2680379E-01

 * 15 selected distances

     #   Z          #   Z                                           value/Å
     1   6 C        2   6 C                                       1.3905642
     2   6 C        3   6 C                                       1.3768118
     3   6 C        4   6 C                                       1.3973394
     4   6 C        5   6 C                                       1.4061305 (max)
     1   6 C        6   6 C                                       1.3747831
     5   6 C        6   6 C                                       1.4011194
     7   6 C        8   8 O                                       1.2051165
     7   6 C        9   8 O                                       1.3625020
     4   6 C       10   8 O                                       1.3428104
     1   6 C       11   1 H                                       1.0785893
     2   6 C       12   1 H                                       1.0796485
     3   6 C       13   1 H                                       1.0785885
     6   6 C       14   1 H                                       1.0794079
     9   8 O       15   1 H                                       0.9698485 (min)
    10   8 O       16   1 H                                       0.9703553

 * 4 distinct bonds (by element types)

   Z      Z             #   av. dist./Å        max./Å        min./Å
   1 H    6 C           4     1.0790586     1.0796485     1.0785885
   6 C    6 C           6     1.3911247     1.4061305     1.3747831
   1 H    8 O           2     0.9701019     0.9703553     0.9698485
   6 C    8 O           3     1.3034763     1.3625020     1.2051165


optimized geometry written to: xtbopt.xyz


           -------------------------------------------------
          | TOTAL ENERGY              -30.251064063931 Eh   |
          | GRADIENT NORM               0.000370105323 Eh/α |
          | HOMO-LUMO GAP               3.232200922363 eV   |
           -------------------------------------------------
########################################################################
[WARNING] Runtime exception occurred
-2- restart_readRestart: Dimension missmatch in restart file.
-1- restart_readRestart: Number of electron missmatch in restart file.
########################################################################

------------------------------------------------------------------------
 * finished run on 2024/09/17 at 17:36:05.672     
------------------------------------------------------------------------
 total:
 * wall-time:     0 d,  0 h,  0 min,  0.432 sec
 *  cpu-time:     0 d,  0 h,  0 min,  2.696 sec
 * ratio c/w:     6.236 speedup
 SCF:
 * wall-time:     0 d,  0 h,  0 min,  0.038 sec
 *  cpu-time:     0 d,  0 h,  0 min,  0.207 sec
 * ratio c/w:     5.433 speedup
 ANC optimizer:
 * wall-time:     0 d,  0 h,  0 min,  0.137 sec
 *  cpu-time:     0 d,  0 h,  0 min,  0.931 sec
 * ratio c/w:     6.773 speedup

