      -----------------------------------------------------------      
     |                   =====================                   |     
     |                           x T B                           |     
     |                   =====================                   |     
     |                         S. Grimme                         |     
     |          Mulliken Center for Theoretical Chemistry        |     
     |                    University of Bonn                     |     
      -----------------------------------------------------------      

   * xtb version 6.6.0 (conda-forge) compiled by 'runner@Mac-1676020848589.local' on 2023-02-10

   xtb is free software: you can redistribute it and/or modify it under
   the terms of the GNU Lesser General Public License as published by
   the Free Software Foundation, either version 3 of the License, or
   (at your option) any later version.
   
   xtb is distributed in the hope that it will be useful,
   but WITHOUT ANY WARRANTY; without even the implied warranty of
   MERCHANTABILITY or FITNESS FOR A PARTICULAR PURPOSE.  See the
   GNU Lesser General Public License for more details.
   
   Cite this work as:
   * C. Bannwarth, E. Caldeweyher, S. Ehlert, A. Hansen, P. Pracht,
     J. Seibert, S. Spicher, S. Grimme, WIREs Comput. Mol. Sci., 2020, 11,
     e01493. DOI: 10.1002/wcms.1493
   
   for GFN2-xTB:
   * C. Bannwarth, S. Ehlert and S. Grimme., J. Chem. Theory Comput., 2019,
     15, 1652-1671. DOI: 10.1021/acs.jctc.8b01176
   for GFN1-xTB:
   * S. Grimme, C. Bannwarth, P. Shushkov, J. Chem. Theory Comput., 2017,
     13, 1989-2009. DOI: 10.1021/acs.jctc.7b00118
   for GFN0-xTB:
   * P. Pracht, E. Caldeweyher, S. Ehlert, S. Grimme, ChemRxiv, 2019, preprint.
     DOI: 10.26434/chemrxiv.8326202.v1
   for GFN-FF:
   * S. Spicher and S. Grimme, Angew. Chem. Int. Ed., 2020, 59, 15665-15673.
     DOI: 10.1002/anie.202004239
   
   for ALPB and GBSA implicit solvation:
   * S. Ehlert, M. Stahn, S. Spicher, S. Grimme, J. Chem. Theory Comput.,
     2021, 17, 4250-4261. DOI: 10.1021/acs.jctc.1c00471
   
   for DFT-D4:
   * E. Caldeweyher, C. Bannwarth and S. Grimme, J. Chem. Phys., 2017,
     147, 034112. DOI: 10.1063/1.4993215
   * E. Caldeweyher, S. Ehlert, A. Hansen, H. Neugebauer, S. Spicher,
     C. Bannwarth and S. Grimme, J. Chem. Phys., 2019, 150, 154122.
     DOI: 10.1063/1.5090222
   * E. Caldeweyher, J.-M. Mewes, S. Ehlert and S. Grimme, Phys. Chem. Chem. Phys.
     2020, 22, 8499-8512. DOI: 10.1039/D0CP00502A
   
   for sTDA-xTB:
   * S. Grimme and C. Bannwarth, J. Chem. Phys., 2016, 145, 054103.
     DOI: 10.1063/1.4959605
   
   in the mass-spec context:
   * V. Asgeirsson, C. Bauer and S. Grimme, Chem. Sci., 2017, 8, 4879.
     DOI: 10.1039/c7sc00601b
   * J. Koopman and S. Grimme, ACS Omega 2019, 4, 12, 15120-15133.
     DOI: 10.1021/acsomega.9b02011
   
   for metadynamics refer to:
   * S. Grimme, J. Chem. Theory Comput., 2019, 155, 2847-2862
     DOI: 10.1021/acs.jctc.9b00143
   
   for SPH calculations refer to:
   * S. Spicher and S. Grimme, J. Chem. Theory Comput., 2021, 17, 1701-1714
     DOI: 10.1021/acs.jctc.0c01306
   
   with help from (in alphabetical order)
   P. Atkinson, C. Bannwarth, F. Bohle, G. Brandenburg, E. Caldeweyher
   M. Checinski, S. Dohm, S. Ehlert, S. Ehrlich, I. Gerasimov, C. Hölzer
   A. Katbashev, J. Koopman, C. Lavigne, S. Lehtola, F. März, M. Müller,
   F. Musil, H. Neugebauer, J. Pisarek, C. Plett, P. Pracht, F. Pultar,
   J. Seibert, P. Shushkov, S. Spicher, M. Stahn, M. Steiner, T. Strunk,
   J. Stückrath, T. Rose, and J. Unsleber
   
 * started run on 2024/09/17 at 17:37:02.794     

           -------------------------------------------------
          |                Calculation Setup                |
           -------------------------------------------------

          program call               : xtb theobromine.xyz --opt --alpb water
          coordinate file            : theobromine.xyz
          omp threads                :                     8

   ID    Z sym.   atoms
    1    6 C      1, 3, 5-7, 10, 13
    2    7 N      2, 4, 9, 12
    3    8 O      8, 11
    4    1 H      14-21

           -------------------------------------------------
          |                 G F N 2 - x T B                 |
           -------------------------------------------------

        Reference                      10.1021/acs.jctc.8b01176
      * Hamiltonian:
        H0-scaling (s, p, d)           1.850000    2.230000    2.230000
        zeta-weighting                 0.500000
      * Dispersion:
        s8                             2.700000
        a1                             0.520000
        a2                             5.000000
        s9                             5.000000
      * Repulsion:
        kExp                           1.500000    1.000000
        rExp                           1.000000
      * Coulomb:
        alpha                          2.000000
        third order                    shell-resolved
        anisotropic                    true
        a3                             3.000000
        a5                             4.000000
        cn-shift                       1.200000
        cn-exp                         4.000000
        max-rad                        5.000000

      * Solvation model:               ALPB
        Solvent                        water
        Parameter file                 internal GFN2-xTB/ALPB
        Dielectric constant                8.0200E+01
        Reference state                gsolv [1 M gas/solution]
        Free energy shift                  1.0808E-03 Eh       6.7819E-01 kcal/mol
        Temperature                        2.9815E+02 K
        Density                            1.0000E+00 kg/L
        Solvent mass                       1.8000E+01 g/mol
        Interaction kernel             P16
        Born radius scaling (c1)           1.4744E+00
        Born radii integrator          GBOBC
        Born offset                        0.0000E+00 a0       0.0000E+00 AA
        H-bond correction              true
        Ion screening                  false
        Surface tension                    1.0000E-05 Eh       1.5569E+01 dyn/cm
        Grid points                               230 per atom

          ...................................................
          :                      SETUP                      :
          :.................................................:
          :  # basis functions                  60          :
          :  # atomic orbitals                  60          :
          :  # shells                           34          :
          :  # electrons                        68          :
          :  max. iterations                   250          :
          :  Hamiltonian                  GFN2-xTB          :
          :  restarted?                      false          :
          :  GBSA solvation                   true          :
          :  PC potential                    false          :
          :  electronic temp.          300.0000000     K    :
          :  accuracy                    1.0000000          :
          :  -> integral cutoff          0.2500000E+02      :
          :  -> integral neglect         0.1000000E-07      :
          :  -> SCF convergence          0.1000000E-05 Eh   :
          :  -> wf. convergence          0.1000000E-03 e    :
          :  Broyden damping             0.4000000          :
          ...................................................

 iter      E             dE          RMSdq      gap      omega  full diag
   1    -39.2740145 -0.392740E+02  0.478E+00    3.31       0.0  T
   2    -39.4197316 -0.145717E+00  0.265E+00    3.31       1.0  T
   3    -39.4249311 -0.519949E-02  0.138E+00    3.35       1.0  T
   4    -39.4245629  0.368178E-03  0.442E-01    3.30       1.0  T
   5    -39.4261846 -0.162166E-02  0.107E-01    3.31       1.0  T
   6    -39.4262333 -0.486604E-04  0.547E-02    3.31       1.0  T
   7    -39.4262425 -0.927885E-05  0.224E-02    3.31       1.0  T
   8    -39.4262438 -0.121585E-05  0.512E-03    3.31       4.3  T
   9    -39.4262439 -0.113628E-06  0.231E-03    3.31       9.4  T
  10    -39.4262439 -0.627295E-08  0.109E-03    3.31      20.1  T
  11    -39.4262439 -0.604272E-08  0.247E-04    3.31      88.2  T
  12    -39.4262439 -0.226393E-09  0.101E-04    3.31     216.5  T

   *** convergence criteria satisfied after 12 iterations ***

         #    Occupation            Energy/Eh            Energy/eV
      -------------------------------------------------------------
         1        2.0000           -0.7295163             -19.8512
       ...           ...                  ...                  ...
        28        2.0000           -0.4588257             -12.4853
        29        2.0000           -0.4472351             -12.1699
        30        2.0000           -0.4377502             -11.9118
        31        2.0000           -0.4370451             -11.8926
        32        2.0000           -0.4223083             -11.4916
        33        2.0000           -0.4085684             -11.1177
        34        2.0000           -0.3970924             -10.8054 (HOMO)
        35                         -0.2753736              -7.4933 (LUMO)
        36                         -0.2387887              -6.4978
        37                         -0.2175410              -5.9196
        38                         -0.1213482              -3.3021
        39                         -0.0612045              -1.6655
       ...                                ...                  ...
        60                          0.6599707              17.9587
      -------------------------------------------------------------
                  HL-Gap            0.1217188 Eh            3.3121 eV
             Fermi-level           -0.3362330 Eh           -9.1494 eV

 SCC (total)                   0 d,  0 h,  0 min,  0.038 sec
 SCC setup                      ...        0 min,  0.003 sec (  7.094%)
 Dispersion                     ...        0 min,  0.000 sec (  1.304%)
 classical contributions        ...        0 min,  0.000 sec (  0.478%)
 integral evaluation            ...        0 min,  0.001 sec (  2.650%)
 iterations                     ...        0 min,  0.031 sec ( 81.125%)
 molecular gradient             ...        0 min,  0.003 sec (  7.102%)
 printout                       ...        0 min,  0.000 sec (  0.204%)

         :::::::::::::::::::::::::::::::::::::::::::::::::::::
         ::                     SUMMARY                     ::
         :::::::::::::::::::::::::::::::::::::::::::::::::::::
         :: total energy             -38.987013097341 Eh    ::
         :: total w/o Gsasa/hb       -38.980702493175 Eh    ::
         :: gradient norm              0.137504350797 Eh/a0 ::
         :: HOMO-LUMO gap              3.312136831394 eV    ::
         ::.................................................::
         :: SCC energy               -39.426243880563 Eh    ::
         :: -> isotropic ES            0.121968750697 Eh    ::
         :: -> anisotropic ES         -0.000366230235 Eh    ::
         :: -> anisotropic XC          0.013673191456 Eh    ::
         :: -> dispersion             -0.019971576338 Eh    ::
         :: -> Gsolv                  -0.027725069428 Eh    ::
         ::    -> Gelec               -0.021414465262 Eh    ::
         ::    -> Gsasa               -0.000212444815 Eh    ::
         ::    -> Ghb                 -0.007178919050 Eh    ::
         ::    -> Gshift               0.001080759698 Eh    ::
         :: repulsion energy           0.439168955928 Eh    ::
         :: add. restraining           0.000000000000 Eh    ::
         :: total charge               0.000000000000 e     ::
         :::::::::::::::::::::::::::::::::::::::::::::::::::::

      ----------------------------------------------------------- 
     |                   =====================                   |
     |                        A N C O P T                        |
     |                   =====================                   |
     |               Approximate Normal Coordinate               |
     |                Rational Function Optimizer                |
      ----------------------------------------------------------- 

          ...................................................
          :                      SETUP                      :
          :.................................................:
          :   optimization level            normal          :
          :   max. optcycles                   200          :
          :   ANC micro-cycles                  20          :
          :   degrees of freedom                57          :
          :.................................................:
          :   RF solver                   davidson          :
          :   write xtbopt.log                true          :
          :   linear?                        false          :
          :   energy convergence         0.5000000E-05 Eh   :
          :   grad. convergence          0.1000000E-02 Eh/α :
          :   maxmium RF displ.          1.0000000          :
          :   Hlow (freq-cutoff)         0.1000000E-01      :
          :   Hmax (freq-cutoff)         5.0000000          :
          :   S6 in model hess.         20.0000000          :
          ...................................................

generating ANC from model Hessian ...
Using Lindh-Hessian (1995)
 Shifting diagonal of input Hessian by    6.7191198201439293E-003
 Lowest  eigenvalues of input Hessian
    0.000000    0.000000    0.000000    0.000000    0.000000    0.000000
    0.010000    0.013049    0.016032    0.016751    0.017936    0.021164
    0.023799    0.035874    0.040828    0.046908    0.055000    0.055566
 Highest eigenvalues
    2.064248    2.092017    2.102363    2.204248    2.445379    2.490095


........................................................................
.............................. CYCLE    1 ..............................
........................................................................

 iter      E             dE          RMSdq      gap      omega  full diag
   1    -39.4262439 -0.394262E+02  0.399E-05    3.31       0.0  T
   2    -39.4262439 -0.451195E-11  0.257E-05    3.31     849.5  T
   3    -39.4262439 -0.916600E-12  0.153E-05    3.31    1424.6  T
     SCC iter.                  ...        0 min,  0.002 sec
     gradient                   ...        0 min,  0.002 sec
 * total energy  :   -38.9870131 Eh     change       -0.2115996E-10 Eh
   gradient norm :     0.1375046 Eh/α   predicted     0.0000000E+00 (-100.00%)
   displ. norm   :     0.2664873 α      lambda       -0.1983650E-01
   maximum displ.:     0.1360743 α      in ANC's #10, #16, #26, ...

........................................................................
.............................. CYCLE    2 ..............................
........................................................................

 iter      E             dE          RMSdq      gap      omega  full diag
   1    -39.4568094 -0.394568E+02  0.321E-01    3.35       0.0  T
   2    -39.4573696 -0.560281E-03  0.187E-01    3.33       1.0  T
   3    -39.4574149 -0.453077E-04  0.937E-02    3.34       1.0  T
   4    -39.4574256 -0.106425E-04  0.304E-02    3.34       1.0  T
   5    -39.4574344 -0.884675E-05  0.718E-03    3.34       3.0  T
   6    -39.4574346 -0.202001E-06  0.379E-03    3.34       5.8  T
   7    -39.4574347 -0.315198E-07  0.116E-03    3.34      18.7  T
   8    -39.4574347 -0.626494E-08  0.455E-04    3.34      47.9  T
   9    -39.4574347 -0.127093E-08  0.213E-04    3.34     102.7  T
     SCC iter.                  ...        0 min,  0.007 sec
     gradient                   ...        0 min,  0.002 sec
 * total energy  :   -39.0009509 Eh     change       -0.1393785E-01 Eh
   gradient norm :     0.0620679 Eh/α   predicted    -0.1062772E-01 ( -23.75%)
   displ. norm   :     0.2034472 α      lambda       -0.6297853E-02
   maximum displ.:     0.0932847 α      in ANC's #10, #16, #26, ...

........................................................................
.............................. CYCLE    3 ..............................
........................................................................

 iter      E             dE          RMSdq      gap      omega  full diag
   1    -39.4737276 -0.394737E+02  0.260E-01    3.38       0.0  T
   2    -39.4740914 -0.363780E-03  0.145E-01    3.36       1.0  T
   3    -39.4741208 -0.294536E-04  0.743E-02    3.37       1.0  T
   4    -39.4741283 -0.751182E-05  0.250E-02    3.36       1.0  T
   5    -39.4741346 -0.629880E-05  0.514E-03    3.36       4.2  T
   6    -39.4741348 -0.138662E-06  0.274E-03    3.36       8.0  T
   7    -39.4741348 -0.191096E-07  0.812E-04    3.36      26.9  T
   8    -39.4741348 -0.328011E-08  0.295E-04    3.36      74.0  T
     SCC iter.                  ...        0 min,  0.006 sec
     gradient                   ...        0 min,  0.002 sec
 * total energy  :   -39.0044585 Eh     change       -0.3507579E-02 Eh
   gradient norm :     0.0166120 Eh/α   predicted    -0.3279545E-02 (  -6.50%)
   displ. norm   :     0.0832255 α      lambda       -0.5084141E-03
   maximum displ.:     0.0546726 α      in ANC's #5, #26, #6, ...

........................................................................
.............................. CYCLE    4 ..............................
........................................................................

 iter      E             dE          RMSdq      gap      omega  full diag
   1    -39.4727776 -0.394728E+02  0.644E-02    3.38       0.0  T
   2    -39.4727890 -0.113973E-04  0.367E-02    3.37       1.0  T
   3    -39.4727890 -0.477373E-07  0.179E-02    3.37       1.2  T
   4    -39.4727907 -0.165160E-05  0.456E-03    3.37       4.8  T
   5    -39.4727909 -0.224197E-06  0.112E-03    3.37      19.5  T
   6    -39.4727909 -0.545513E-08  0.617E-04    3.37      35.4  T
   7    -39.4727909 -0.825246E-09  0.216E-04    3.37     101.0  T
     SCC iter.                  ...        0 min,  0.004 sec
     gradient                   ...        0 min,  0.001 sec
 * total energy  :   -39.0048163 Eh     change       -0.3577747E-03 Eh
   gradient norm :     0.0083169 Eh/α   predicted    -0.2559809E-03 ( -28.45%)
   displ. norm   :     0.0839260 α      lambda       -0.2228628E-03
   maximum displ.:     0.0629212 α      in ANC's #5, #26, #6, ...

........................................................................
.............................. CYCLE    5 ..............................
........................................................................

 iter      E             dE          RMSdq      gap      omega  full diag
   1    -39.4715381 -0.394715E+02  0.424E-02    3.38       0.0  T
   2    -39.4715419 -0.380072E-05  0.241E-02    3.38       1.0  T
   3    -39.4715417  0.191236E-06  0.105E-02    3.38       2.1  T
   4    -39.4715425 -0.721115E-06  0.244E-03    3.38       8.9  T
   5    -39.4715425 -0.603062E-07  0.784E-04    3.38      27.8  T
   6    -39.4715425 -0.342831E-08  0.409E-04    3.38      53.4  T
     SCC iter.                  ...        0 min,  0.004 sec
     gradient                   ...        0 min,  0.001 sec
 * total energy  :   -39.0049448 Eh     change       -0.1285202E-03 Eh
   gradient norm :     0.0033812 Eh/α   predicted    -0.1122973E-03 ( -12.62%)
   displ. norm   :     0.0318123 α      lambda       -0.2413730E-04
   maximum displ.:     0.0250641 α      in ANC's #5, #4, #6, ...

........................................................................
.............................. CYCLE    6 ..............................
........................................................................

 iter      E             dE          RMSdq      gap      omega  full diag
   1    -39.4717321 -0.394717E+02  0.126E-02    3.38       0.0  T
   2    -39.4717322 -0.122612E-06  0.744E-03    3.38       2.9  T
   3    -39.4717321  0.461542E-07  0.219E-03    3.38       9.9  T
   4    -39.4717322 -0.728017E-07  0.494E-04    3.38      44.1  T
   5    -39.4717322 -0.209788E-08  0.221E-04    3.38      98.7  T
     SCC iter.                  ...        0 min,  0.004 sec
     gradient                   ...        0 min,  0.001 sec
 * total energy  :   -39.0049621 Eh     change       -0.1728516E-04 Eh
   gradient norm :     0.0022073 Eh/α   predicted    -0.1208297E-04 ( -30.10%)
   displ. norm   :     0.0323443 α      lambda       -0.1461913E-04
   maximum displ.:     0.0237418 α      in ANC's #5, #4, #6, ...

........................................................................
.............................. CYCLE    7 ..............................
........................................................................

 iter      E             dE          RMSdq      gap      omega  full diag
   1    -39.4721114 -0.394721E+02  0.146E-02    3.38       0.0  T
   2    -39.4721115 -0.122550E-06  0.858E-03    3.38       2.5  T
   3    -39.4721114  0.942568E-07  0.311E-03    3.38       7.0  T
   4    -39.4721115 -0.138281E-06  0.467E-04    3.38      46.7  T
   5    -39.4721115 -0.145954E-08  0.244E-04    3.38      89.6  T
     SCC iter.                  ...        0 min,  0.002 sec
     gradient                   ...        0 min,  0.001 sec
 * total energy  :   -39.0049711 Eh     change       -0.8995503E-05 Eh
   gradient norm :     0.0010825 Eh/α   predicted    -0.7319730E-05 ( -18.63%)
   displ. norm   :     0.0224333 α      lambda       -0.3162011E-05
   maximum displ.:     0.0149640 α      in ANC's #4, #5, #6, ...

........................................................................
.............................. CYCLE    8 ..............................
........................................................................

 iter      E             dE          RMSdq      gap      omega  full diag
   1    -39.4722649 -0.394723E+02  0.103E-02    3.38       0.0  T
   2    -39.4722650 -0.542829E-07  0.596E-03    3.38       3.7  T
   3    -39.4722650  0.280423E-07  0.187E-03    3.38      11.7  T
   4    -39.4722650 -0.428179E-07  0.313E-04    3.38      69.8  T
   5    -39.4722650 -0.688338E-09  0.159E-04    3.38     137.3  T
     SCC iter.                  ...        0 min,  0.003 sec
     gradient                   ...        0 min,  0.001 sec
 * total energy  :   -39.0049739 Eh     change       -0.2759167E-05 Eh
   gradient norm :     0.0008307 Eh/α   predicted    -0.1581929E-05 ( -42.67%)
   displ. norm   :     0.0140587 α      lambda       -0.1410845E-05
   maximum displ.:     0.0119744 α      in ANC's #4, #6, #3, ...

   *** GEOMETRY OPTIMIZATION CONVERGED AFTER 8 ITERATIONS ***

------------------------------------------------------------------------
 total energy gain   :        -0.0179608 Eh      -11.2705 kcal/mol
 total RMSD          :         0.1334604 a0        0.0706 Å
 total power (kW/mol):        -5.8944968 (step) -667.0618 (real)
------------------------------------------------------------------------

 ANCopt (total)                0 d,  0 h,  0 min,  0.071 sec
 optimizer setup                ...        0 min,  0.000 sec (  0.492%)
 model hessian                  ...        0 min,  0.005 sec (  7.365%)
 ANC generation                 ...        0 min,  0.001 sec (  1.335%)
 coordinate transformation      ...        0 min,  0.000 sec (  0.069%)
 single point calculation       ...        0 min,  0.051 sec ( 72.762%)
 optimization log               ...        0 min,  0.001 sec (  1.163%)
 hessian update                 ...        0 min,  0.000 sec (  0.347%)
 rational function              ...        0 min,  0.011 sec ( 15.334%)

================
 final structure:
================
21
 xtb: 6.6.0 (conda-forge)
C           -3.14558150814773       -0.00816549026833       -0.02200967135050
N           -1.78833943276701       -0.47363044593086       -0.08629900853327
C           -1.35546602089157       -1.72651885805765       -0.27935274030083
N           -0.03934612017514       -1.83909926488974       -0.28956820323765
C            0.41074239633743       -0.58331906510686       -0.09117279702172
C           -0.66008016470006        0.30079788111741        0.04223652462211
C           -0.45993557747774        1.69359662013858        0.27040684740691
O           -1.30090198210115        2.57318679706342        0.40392402324537
N            0.89707768506825        1.98608977356586        0.33523749991519
C            1.98281721727148        1.14193280988232        0.20207702226581
O            3.12219414377963        1.57475993172095        0.28374478474673
N            1.71011746834287       -0.17968759423729       -0.01349458220867
C            2.79352557467496       -1.12995585123007       -0.17596839731118
H           -3.81767571113928       -0.85369748396569       -0.13918401752335
H           -3.32327831006980        0.48160746388702        0.93529719007947
H           -3.32367352128879        0.72291995649017       -0.81060432931236
H           -2.01215498818935       -2.56193334415021       -0.41372015550140
H            1.13725945038230        2.95900612411945        0.49802339383762
H            2.41868113555409       -2.11321270294931        0.09095312002372
H            3.61694418620391       -0.83167757812501        0.46968268916140
H            3.13687407933270       -1.13309967907415       -1.21010919300341

 Bond Distances (Angstroems)
 ---------------------------
C1-N2=1.4363         C1-H14=1.0864        C1-H15=1.0899        C1-H16=1.0900        N2-C1=1.4363         N2-C3=1.3395         
N2-C6=1.3745         C3-N2=1.3395         C3-N4=1.3210         C3-H17=1.0711        N4-C3=1.3210         N4-C5=1.3487         
C5-N4=1.3487         C5-C6=1.3950         C5-N12=1.3628        C6-N2=1.3745         C6-C5=1.3950         C6-C7=1.4255         
C7-C6=1.4255         C7-O8=1.2242         C7-N9=1.3897         O8-C7=1.2242         N9-C7=1.3897         N9-C10=1.3817        
N9-H18=1.0153        C10-N9=1.3817        C10-O11=1.2216       C10-N12=1.3666       O11-C10=1.2216       N12-C5=1.3628        
N12-C10=1.3666       N12-C13=1.4502       C13-N12=1.4502       C13-H19=1.0856       C13-H20=1.0881       C13-H21=1.0897       
H14-C1=1.0864        H15-C1=1.0899        H16-C1=1.0900        H17-C3=1.0711        H18-N9=1.0153        H19-C13=1.0856       
H20-C13=1.0881       H21-C13=1.0897       
 C  H  Rav=1.0858 sigma=0.0062  Rmin=1.0711  Rmax=1.0900     7
 C  C  Rav=1.4103 sigma=0.0152  Rmin=1.3950  Rmax=1.4255     2
 N  H  Rav=1.0153 sigma=0.0000  Rmin=1.0153  Rmax=1.0153     1
 N  C  Rav=1.3771 sigma=0.0384  Rmin=1.3210  Rmax=1.4502    10
 O  C  Rav=1.2229 sigma=0.0013  Rmin=1.2216  Rmax=1.2242     2

 selected bond angles (degree)
 --------------------
H14-C1-N2=109.12               H15-C1-N2=109.82               H15-C1-H14=110.10              H16-C1-N2=109.84               
H16-C1-H14=110.05              H16-C1-H15=107.90              C3-N2-C1=127.95                C6-N2-C1=126.08                
C6-N2-C3=105.97                N4-C3-N2=113.75                H17-C3-N2=123.33               H17-C3-N4=122.92               
C5-N4-C3=104.60                C6-C5-N4=110.37                N12-C5-N4=127.04               N12-C5-C6=122.60               
C5-C6-N2=105.31                C7-C6-N2=132.90                C7-C6-C5=121.79                O8-C7-C6=128.54                
N9-C7-C6=110.50                N9-C7-O8=120.96                C10-N9-C7=129.36               H18-N9-C7=116.12               
H18-N9-C10=114.52              O11-C10-N9=120.66              N12-C10-N9=116.70              N12-C10-O11=122.64             

 selected dihedral angles (degree)
 ---------------------------------
C3-N2-C1-H14=  1.05           C3-N2-C1-H15=121.81           C3-N2-C1-H16=240.33           C6-N2-C1-H14=181.08           
C6-N2-C1-H15=301.84           C6-N2-C1-H16= 60.36           N4-C3-N2-C1=179.96            N4-C3-N2-C6=359.94            
H17-C3-N2-C1=  0.00           H17-C3-N2-C6=179.96           C5-N4-C3-N2=  0.00            C5-N4-C3-H17=179.98           
C6-C5-N4-C3=  0.06            N12-C5-N4-C3=179.61           C5-C6-N2-C1=180.07            C5-C6-N2-C3=  0.09            
C7-C6-N2-C1=  0.47            C7-C6-N2-C3=180.49            N2-C6-C5-N4=359.90            N2-C6-C5-N12=180.33           
C7-C6-C5-N4=179.56            C7-C6-C5-N12=  0.00           O8-C7-C6-N2=359.47            O8-C7-C6-C5=179.92            
N9-C7-C6-N2=179.36            N9-C7-C6-C5=359.81            C10-N9-C7-C6=  0.55           C10-N9-C7-O8=180.45           
H18-N9-C7-C6=180.13           H18-N9-C7-O8=  0.03           O11-C10-N9-C7=179.74          O11-C10-N9-H18=  0.15         
N12-C10-N9-C7=359.34          N12-C10-N9-H18=179.76         
           -------------------------------------------------
          |                Final Singlepoint                |
           -------------------------------------------------

          ...................................................
          :                      SETUP                      :
          :.................................................:
          :  # basis functions                  60          :
          :  # atomic orbitals                  60          :
          :  # shells                           34          :
          :  # electrons                        68          :
          :  max. iterations                   250          :
          :  Hamiltonian                  GFN2-xTB          :
          :  restarted?                      false          :
          :  GBSA solvation                   true          :
          :  PC potential                    false          :
          :  electronic temp.          300.0000000     K    :
          :  accuracy                    1.0000000          :
          :  -> integral cutoff          0.2500000E+02      :
          :  -> integral neglect         0.1000000E-07      :
          :  -> SCF convergence          0.1000000E-05 Eh   :
          :  -> wf. convergence          0.1000000E-03 e    :
          :  Broyden damping             0.4000000          :
          ...................................................

 iter      E             dE          RMSdq      gap      omega  full diag
   1    -39.4722650 -0.394723E+02  0.698E-05    3.38       0.0  T
   2    -39.4722650 -0.108713E-10  0.439E-05    3.38     497.5  T
   3    -39.4722650 -0.144240E-11  0.262E-05    3.38     833.1  T

   *** convergence criteria satisfied after 3 iterations ***

         #    Occupation            Energy/Eh            Energy/eV
      -------------------------------------------------------------
         1        2.0000           -0.7332077             -19.9516
       ...           ...                  ...                  ...
        28        2.0000           -0.4569095             -12.4331
        29        2.0000           -0.4496721             -12.2362
        30        2.0000           -0.4438089             -12.0767
        31        2.0000           -0.4357528             -11.8574
        32        2.0000           -0.4260179             -11.5925
        33        2.0000           -0.4090429             -11.1306
        34        2.0000           -0.3948341             -10.7440 (HOMO)
        35                         -0.2706598              -7.3650 (LUMO)
        36                         -0.2306495              -6.2763
        37                         -0.2071147              -5.6359
        38                         -0.1286291              -3.5002
        39                         -0.0382878              -1.0419
       ...                                ...                  ...
        60                          0.6764790              18.4079
      -------------------------------------------------------------
                  HL-Gap            0.1241743 Eh            3.3790 eV
             Fermi-level           -0.3327469 Eh           -9.0545 eV

 SCC (total)                   0 d,  0 h,  0 min,  0.005 sec
 SCC setup                      ...        0 min,  0.000 sec (  4.121%)
 Dispersion                     ...        0 min,  0.000 sec (  2.111%)
 classical contributions        ...        0 min,  0.000 sec (  0.649%)
 integral evaluation            ...        0 min,  0.001 sec ( 13.604%)
 iterations                     ...        0 min,  0.003 sec ( 51.677%)
 molecular gradient             ...        0 min,  0.001 sec ( 26.656%)
 printout                       ...        0 min,  0.000 sec (  1.014%)

         :::::::::::::::::::::::::::::::::::::::::::::::::::::
         ::                     SUMMARY                     ::
         :::::::::::::::::::::::::::::::::::::::::::::::::::::
         :: total energy             -39.004973859462 Eh    ::
         :: total w/o Gsasa/hb       -38.999734103622 Eh    ::
         :: gradient norm              0.000831031057 Eh/a0 ::
         :: HOMO-LUMO gap              3.378955284279 eV    ::
         ::.................................................::
         :: SCC energy               -39.472264996713 Eh    ::
         :: -> isotropic ES            0.110750489924 Eh    ::
         :: -> anisotropic ES          0.000413143799 Eh    ::
         :: -> anisotropic XC          0.012208360119 Eh    ::
         :: -> dispersion             -0.019989270107 Eh    ::
         :: -> Gsolv                  -0.024223851208 Eh    ::
         ::    -> Gelec               -0.018984095368 Eh    ::
         ::    -> Gsasa                0.000022546143 Eh    ::
         ::    -> Ghb                 -0.006343061680 Eh    ::
         ::    -> Gshift               0.001080759698 Eh    ::
         :: repulsion energy           0.467225166444 Eh    ::
         :: add. restraining           0.000000000000 Eh    ::
         :: total charge              -0.000000000000 e     ::
         :::::::::::::::::::::::::::::::::::::::::::::::::::::

           -------------------------------------------------
          |                Property Printout                |
           -------------------------------------------------

    * Orbital Energies and Occupations

         #    Occupation            Energy/Eh            Energy/eV
      -------------------------------------------------------------
         1        2.0000           -0.7332077             -19.9516
       ...           ...                  ...                  ...
        22        2.0000           -0.5204080             -14.1610
        23        2.0000           -0.5073642             -13.8061
        24        2.0000           -0.5039420             -13.7130
        25        2.0000           -0.4986298             -13.5684
        26        2.0000           -0.4889906             -13.3061
        27        2.0000           -0.4754761             -12.9384
        28        2.0000           -0.4569095             -12.4331
        29        2.0000           -0.4496721             -12.2362
        30        2.0000           -0.4438089             -12.0767
        31        2.0000           -0.4357528             -11.8574
        32        2.0000           -0.4260179             -11.5925
        33        2.0000           -0.4090429             -11.1306
        34        2.0000           -0.3948341             -10.7440 (HOMO)
        35                         -0.2706598              -7.3650 (LUMO)
        36                         -0.2306495              -6.2763
        37                         -0.2071147              -5.6359
        38                         -0.1286291              -3.5002
        39                         -0.0382878              -1.0419
        40                          0.0079368               0.2160
        41                          0.0260410               0.7086
        42                          0.0874706               2.3802
        43                          0.1033184               2.8114
        44                          0.1373967               3.7388
        45                          0.1477435               4.0203
       ...                                ...                  ...
        60                          0.6764790              18.4079
      -------------------------------------------------------------
                  HL-Gap            0.1241743 Eh            3.3790 eV
             Fermi-level           -0.3327469 Eh           -9.0545 eV

     #   Z          covCN         q      C6AA      α(0)
     1   6 C        3.690    -0.081    22.245     6.750
     2   7 N        2.833     0.022    20.867     6.785
     3   6 C        3.205     0.084    25.560     8.234
     4   7 N        1.895    -0.297    28.538     7.920
     5   6 C        3.191     0.126    24.778     8.118
     6   6 C        3.127    -0.036    28.698     8.772
     7   6 C        2.755     0.279    22.279     7.729
     8   8 O        0.858    -0.502    23.823     6.544
     9   7 N        2.710    -0.214    25.651     7.522
    10   6 C        2.718     0.328    21.418     7.576
    11   8 O        0.859    -0.515    24.117     6.584
    12   7 N        2.741    -0.057    22.352     7.022
    13   6 C        3.700    -0.074    22.084     6.720
    14   1 H        0.925     0.102     1.765     2.078
    15   1 H        0.925     0.095     1.835     2.118
    16   1 H        0.925     0.095     1.835     2.118
    17   1 H        0.926     0.093     1.852     2.128
    18   1 H        0.860     0.256     0.859     1.452
    19   1 H        0.925     0.111     1.688     2.032
    20   1 H        0.925     0.094     1.844     2.124
    21   1 H        0.925     0.091     1.874     2.141

 Mol. C6AA /au·bohr⁶  :       5452.162639
 Mol. C8AA /au·bohr⁸  :     126352.657756
 Mol. α(0) /au        :        112.466389


Wiberg/Mayer (AO) data.
largest (>0.10) Wiberg bond orders for each atom

 ---------------------------------------------------------------------------
     #   Z sym  total        # sym  WBO       # sym  WBO       # sym  WBO
 ---------------------------------------------------------------------------
     1   6 C    3.941 --     2 N    0.992    14 H    0.975    15 H    0.967
                            16 H    0.966
     2   7 N    3.671 --     3 C    1.327     6 C    1.158     1 C    0.992
     3   6 C    3.950 --     4 N    1.456     2 N    1.327    17 H    0.957
     4   7 N    3.003 --     3 C    1.456     5 C    1.303
     5   6 C    3.966 --     6 C    1.324     4 N    1.303    12 N    1.138
     6   6 C    3.943 --     5 C    1.324     2 N    1.158     7 C    1.133
     7   6 C    3.951 --     8 O    1.602     6 C    1.133     9 N    1.113
     8   8 O    1.942 --     7 C    1.602     9 N    0.139
     9   7 N    3.491 --    10 C    1.127     7 C    1.113    18 H    0.903
                             8 O    0.139    11 O    0.126
    10   6 C    3.959 --    11 O    1.576    12 N    1.167     9 N    1.127
    11   8 O    1.918 --    10 C    1.576    12 N    0.140     9 N    0.126
    12   7 N    3.587 --    10 C    1.167     5 C    1.138    13 C    0.971
                            11 O    0.140
    13   6 C    3.929 --    20 H    0.974    19 H    0.972    12 N    0.971
                            21 H    0.969
    14   1 H    0.989 --     1 C    0.975
    15   1 H    0.991 --     1 C    0.967
    16   1 H    0.991 --     1 C    0.966
    17   1 H    0.990 --     3 C    0.957
    18   1 H    0.934 --     9 N    0.903
    19   1 H    0.987 --    13 C    0.972
    20   1 H    0.990 --    13 C    0.974
    21   1 H    0.990 --    13 C    0.969
 ---------------------------------------------------------------------------

Topologies differ in total number of bonds
Writing topology from bond orders to xtbtopo.mol

molecular dipole:
                 x           y           z       tot (Debye)
 q only:       -1.441      -2.166      -0.348
   full:       -1.650      -1.820      -0.309       6.294
molecular quadrupole (traceless):
                xx          xy          yy          xz          yz          zz
 q only:        5.681      -0.867      -7.095      -0.119      -1.466       1.414
  q+dip:        2.474       2.241      -7.378       0.218      -2.010       4.904
   full:        2.297       1.855      -8.774       0.152      -2.513       6.477

           -------------------------------------------------
          |                Geometry Summary                 |
           -------------------------------------------------

      molecular mass/u    :      180.1643000
   center of mass at/Å    :        0.1812863       0.2895870       0.0500318
  moments of inertia/u·Å² :        0.3702332E+03   0.6494676E+03   0.1013400E+04
rotational constants/cm⁻¹ :        0.4553246E-01   0.2595608E-01   0.1663473E-01

 * 22 selected distances

     #   Z          #   Z                                           value/Å
     1   6 C        2   7 N                                       1.4362789
     2   7 N        3   6 C                                       1.3395443
     3   6 C        4   7 N                                       1.3209658
     4   7 N        5   6 C                                       1.3486751
     2   7 N        6   6 C                                       1.3744926
     5   6 C        6   6 C                                       1.3950348
     6   6 C        7   6 C                                       1.4254853
     7   6 C        8   8 O                                       1.2242265
     7   6 C        9   7 N                                       1.3896908
     9   7 N       10   6 C                                       1.3817248
    10   6 C       11   8 O                                       1.2215519
     5   6 C       12   7 N                                       1.3628383
    10   6 C       12   7 N                                       1.3665713
    12   7 N       13   6 C                                       1.4502348 (max)
     1   6 C       14   1 H                                       1.0864460
     1   6 C       15   1 H                                       1.0899038
     1   6 C       16   1 H                                       1.0899929
     3   6 C       17   1 H                                       1.0710801
     9   7 N       18   1 H                                       1.0152600 (min)
    13   6 C       19   1 H                                       1.0856103
    13   6 C       20   1 H                                       1.0880504
    13   6 C       21   1 H                                       1.0896538

 * 5 distinct bonds (by element types)

   Z      Z             #   av. dist./Å        max./Å        min./Å
   1 H    6 C           7     1.0858196     1.0899929     1.0710801
   6 C    6 C           2     1.4102600     1.4254853     1.3950348
   1 H    7 N           1     1.0152600     1.0152600     1.0152600
   6 C    7 N          10     1.3771017     1.4502348     1.3209658
   6 C    8 O           2     1.2228892     1.2242265     1.2215519


optimized geometry written to: xtbopt.xyz


           -------------------------------------------------
          | TOTAL ENERGY              -39.004973859462 Eh   |
          | GRADIENT NORM               0.000831031057 Eh/α |
          | HOMO-LUMO GAP               3.378955284279 eV   |
           -------------------------------------------------
########################################################################
[WARNING] Runtime exception occurred
-2- restart_readRestart: Dimension missmatch in restart file.
-1- restart_readRestart: Number of electron missmatch in restart file.
########################################################################

------------------------------------------------------------------------
 * finished run on 2024/09/17 at 17:37:03.153     
------------------------------------------------------------------------
 total:
 * wall-time:     0 d,  0 h,  0 min,  0.359 sec
 *  cpu-time:     0 d,  0 h,  0 min,  2.358 sec
 * ratio c/w:     6.576 speedup
 SCF:
 * wall-time:     0 d,  0 h,  0 min,  0.039 sec
 *  cpu-time:     0 d,  0 h,  0 min,  0.209 sec
 * ratio c/w:     5.333 speedup
 ANC optimizer:
 * wall-time:     0 d,  0 h,  0 min,  0.077 sec
 *  cpu-time:     0 d,  0 h,  0 min,  0.549 sec
 * ratio c/w:     7.114 speedup

