76
 energy: -107.570976852858 gnorm: 0.158610672797 xtb: 6.6.0 (conda-forge)
C            8.79930000000000       -0.51810000000000       -1.33090000000000
C            8.03710000000000        0.00560000000000       -0.09320000000000
C            7.93590000000000        1.54330000000000       -0.20020000000000
C            6.61280000000000       -0.56350000000000        0.02920000000000
C            5.96020000000000       -1.22370000000000       -1.03530000000000
C            4.65200000000000       -1.69280000000000       -0.89260000000000
C            3.95020000000000       -1.51230000000000        0.30860000000000
C            4.57870000000000       -0.82700000000000        1.36190000000000
C            5.88740000000000       -0.35940000000000        1.22220000000000
C            2.51480000000000       -1.99760000000000        0.40740000000000
C            1.51390000000000       -1.05290000000000       -0.30190000000000
C            1.54370000000000        0.40680000000000        0.19570000000000
C            0.65140000000000        1.31450000000000       -0.66330000000000
N           -0.75070000000000        0.84490000000000       -0.65220000000000
C           -1.42900000000000        1.18050000000000       -1.92470000000000
C           -2.96690000000000        1.02610000000000       -1.85290000000000
C           -3.41700000000000        0.14010000000000       -0.66260000000000
C           -2.78320000000000        0.57150000000000        0.69200000000000
C           -1.50000000000000        1.38610000000000        0.49640000000000
C           -4.97630000000000       -0.12170000000000       -0.61930000000000
C           -5.87650000000000        1.12780000000000       -0.48070000000000
C           -7.26680000000000        0.95780000000000       -0.67580000000000
C           -8.15440000000000        2.02690000000000       -0.53600000000000
C           -7.67900000000000        3.28900000000000       -0.18780000000000
C           -6.31560000000000        3.48220000000000        0.02570000000000
C           -5.42060000000000        2.41660000000000       -0.11130000000000
C           -5.27670000000000       -1.10240000000000        0.53200000000000
C           -5.64510000000000       -0.63770000000000        1.81730000000000
C           -5.86280000000000       -1.53220000000000        2.86840000000000
C           -5.70000000000000       -2.90250000000000        2.66810000000000
C           -5.30910000000000       -3.38090000000000        1.41800000000000
C           -5.08880000000000       -2.49250000000000        0.36170000000000
O           -5.37430000000000       -0.72090000000000       -1.84090000000000
O            2.13750000000000       -2.28870000000000        1.73260000000000
C            8.84770000000000       -0.40140000000000        1.12500000000000
O            9.59490000000000        0.42680000000000        1.71530000000000
O            8.81170000000000       -1.72250000000000        1.56510000000000
H            8.81460000000000       -1.62960000000000       -1.34270000000000
H            9.85250000000000       -0.16080000000000       -1.32080000000000
H            8.33770000000000       -0.15000000000000       -2.27230000000000
H            7.30490000000000        1.83050000000000       -1.06930000000000
H            8.94100000000000        1.99850000000000       -0.33660000000000
H            7.48140000000000        1.97700000000000        0.71660000000000
H            6.44340000000000       -1.38350000000000       -1.98750000000000
H            4.17990000000000       -2.19340000000000       -1.72930000000000
H            4.06270000000000       -0.63970000000000        2.29330000000000
H            6.33640000000000        0.17160000000000        2.05230000000000
H            2.46240000000000       -2.96580000000000       -0.13790000000000
H            0.49010000000000       -1.46530000000000       -0.16970000000000
H            1.73560000000000       -1.06560000000000       -1.39180000000000
H            1.21810000000000        0.46220000000000        1.25340000000000
H            2.57900000000000        0.80360000000000        0.14000000000000
H            0.72510000000000        2.36510000000000       -0.30010000000000
H            1.06630000000000        1.30400000000000       -1.69810000000000
H           -1.04360000000000        0.50040000000000       -2.71580000000000
H           -1.19010000000000        2.22390000000000       -2.23500000000000
H           -3.41400000000000        2.03550000000000       -1.79590000000000
H           -3.32360000000000        0.58460000000000       -2.80840000000000
H           -2.94780000000000       -0.84980000000000       -0.87330000000000
H           -3.47940000000000        1.13910000000000        1.33760000000000
H           -2.52900000000000       -0.34650000000000        1.26780000000000
H           -0.90400000000000        1.32370000000000        1.43200000000000
H           -1.75220000000000        2.45890000000000        0.33110000000000
H           -7.66940000000000       -0.01520000000000       -0.92960000000000
H           -9.21420000000000        1.87360000000000       -0.69300000000000
H           -8.36780000000000        4.11660000000000       -0.07830000000000
H           -5.94910000000000        4.46270000000000        0.30150000000000
H           -4.38470000000000        2.63510000000000        0.07180000000000
H           -5.76080000000000        0.41840000000000        2.01790000000000
H           -6.15180000000000       -1.16050000000000        3.84270000000000
H           -5.86620000000000       -3.59310000000000        3.48460000000000
H           -5.16680000000000       -4.44330000000000        1.26830000000000
H           -4.76210000000000       -2.90430000000000       -0.58210000000000
H           -4.68300000000000       -1.35620000000000       -2.15980000000000
H            1.93370000000000       -1.43970000000000        2.19890000000000
H            9.35810000000000       -2.01910000000000        2.36470000000000
76
 energy: -107.597342225822 gnorm: 0.053692840326 xtb: 6.6.0 (conda-forge)
C            8.79500768235104       -0.52701987249339       -1.31958586234800
C            8.02781625483662       -0.00607968723059       -0.08939249385518
C            7.93804218773958        1.52867308051436       -0.18926062923454
C            6.60776052412855       -0.56715755366090        0.02680704690856
C            5.96009229649664       -1.22113098729732       -1.02181142675073
C            4.65706357700404       -1.67792225274646       -0.88302404309568
C            3.94820535695968       -1.48882814747241        0.29998326198142
C            4.58386987057905       -0.82068639870973        1.34371609321233
C            5.88887256885677       -0.36781015390915        1.20717741967826
C            2.51795274547265       -1.99217537451423        0.40526524350979
C            1.52010329409894       -1.04624992641146       -0.30151972383541
C            1.54384868442078        0.40303766382949        0.19522993667691
C            0.64379610305445        1.30441975342892       -0.65750548275007
N           -0.75178704207900        0.85249901504674       -0.65434868278360
C           -1.43556429933276        1.17660783947581       -1.91137399488807
C           -2.97152737582574        1.03288111610870       -1.83053700227506
C           -3.41518314010235        0.13290733282386       -0.65974072277388
C           -2.78833392980298        0.56641662816984        0.68479414951721
C           -1.50991429269433        1.38432992243791        0.47694881442352
C           -4.96845899003043       -0.11350477816693       -0.60974060864175
C           -5.87253876289191        1.12611711155409       -0.46113277676934
C           -7.24759319080389        0.95839127230184       -0.66592348404019
C           -8.13437438009281        2.01916539362649       -0.53565397995901
C           -7.67099180700904        3.27773678572582       -0.18955284299481
C           -6.31526716017015        3.46435860057966        0.02065347496228
C           -5.42594392594893        2.40449230534235       -0.11362433695545
C           -5.24691075199084       -1.09485922740011        0.54705016328916
C           -5.63616913061808       -0.64220811412152        1.81101620396643
C           -5.85836585924261       -1.53106359877297        2.85377056283054
C           -5.69760072276946       -2.89371895447503        2.65929231869232
C           -5.30915698649311       -3.36155158968122        1.41489078960072
C           -5.08312326568236       -2.47294710623721        0.37169206669252
O           -5.36542542568673       -0.70062886625368       -1.84186183353539
O            2.13018267069740       -2.27949154111865        1.72801233811829
C            8.85630452754367       -0.38727169710511        1.12992193735360
O            9.57820901364637        0.39638414317344        1.71535006116747
O            8.78427193662719       -1.68857930184314        1.52149390660442
H            8.81312442119544       -1.62015502898651       -1.33912343527640
H            9.82961882858471       -0.16650110617071       -1.30358425949020
H            8.33776367186413       -0.15908187494040       -2.24327514263083
H            7.31750733076710        1.80690582452893       -1.04761788833310
H            8.92771723497735        1.97545146527233       -0.32236788907789
H            7.49105302059892        1.96327092098295        0.70842987255820
H            6.45093699832823       -1.38289979944727       -1.96906235430548
H            4.18704179449248       -2.18752253166192       -1.71397588134625
H            4.07084324576649       -0.64935146363320        2.27988193093960
H            6.34409303202881        0.15760528170353        2.03672179500568
H            2.46454683971600       -2.96191797503966       -0.11982246031975
H            0.50842560471912       -1.45093009572308       -0.16916940605393
H            1.73926104005118       -1.05787792694028       -1.37684394774424
H            1.22025011535119        0.45367560008488        1.24217447672282
H            2.56931510175692        0.79343872677665        0.14317435017094
H            0.72166821107348        2.34969275670553       -0.30261366413891
H            1.03148121573690        1.28951473019146       -1.68736306172714
H           -1.03476270646010        0.50220632361537       -2.68326814843164
H           -1.19517392169976        2.20995712022135       -2.22703284291585
H           -3.42663748291028        2.02563672197445       -1.76920870324504
H           -3.32921823167102        0.59395919840780       -2.77226385593900
H           -2.96846947994761       -0.85403858380422       -0.87657336318098
H           -3.48219432548030        1.13447639132395        1.31274294644372
H           -2.53951525282982       -0.34138727025449        1.25177568119884
H           -0.90354550289526        1.32256392847767        1.39095815070035
H           -1.75018550392233        2.45413463985489        0.32144375011134
H           -7.63905869807253       -0.01346574933754       -0.93084897399041
H           -9.19304095271868        1.86325487666385       -0.69482562582046
H           -8.35980593093695        4.10516418188505       -0.08065544895020
H           -5.94650430180195        4.44351505652726        0.29692145536491
H           -4.38600790269797        2.61525827669271        0.06790200871728
H           -5.76709064239600        0.41372576393559        1.99879207048598
H           -6.15002815578927       -1.15846196447419        3.82617318845276
H           -5.86619089139822       -3.58527742911503        3.47376377417125
H           -5.16911042941854       -4.42327377012862        1.26040308596514
H           -4.77326312708348       -2.88134191356823       -0.58034663844023
H           -4.69346796899894       -1.33959474879048       -2.13851175792889
H            1.93933764930259       -1.44362057764676        2.18570523282086
H            9.33181719757212       -1.94484081068174        2.30211511775761
76
 energy: -107.603693135731 gnorm: 0.017392931667 xtb: 6.6.0 (conda-forge)
C            8.78880170138110       -0.53676548331990       -1.30871989301364
C            8.01538827904401       -0.00811310314483       -0.09045684666253
C            7.93101652149974        1.52269777672313       -0.18719164372047
C            6.60454168290243       -0.56682906989282        0.02528803366811
C            5.96025598627811       -1.21836738767904       -1.01653571305354
C            4.65827270192574       -1.66593848566475       -0.88013955623667
C            3.94674066213668       -1.47327834872645        0.29590654669959
C            4.58722430298413       -0.81507519790397        1.33636101754652
C            5.89028677613094       -0.36945235015043        1.20087888796808
C            2.51910093132772       -1.98255723998590        0.40311782543274
C            1.52069786304686       -1.04288825593351       -0.30852420940418
C            1.53711946054556        0.39877716064694        0.19543210925614
C            0.62902925712700        1.29227434559403       -0.65642699089283
N           -0.76099253907570        0.85152554377959       -0.64883876355397
C           -1.43965395189229        1.16980715445945       -1.90014827747983
C           -2.97258427215731        1.03426317011592       -1.81266548447010
C           -3.40862413010008        0.12719786140791       -0.65429846341590
C           -2.78853011933425        0.55960978377140        0.68520439833003
C           -1.51422214030737        1.38158678531989        0.47333172706889
C           -4.95497881356202       -0.10470087195999       -0.60350809075990
C           -5.85625368735720        1.12519940489717       -0.44812572622454
C           -7.22216863589646        0.94880914650618       -0.65858294546102
C           -8.11233742590042        2.00133255021151       -0.53338007438333
C           -7.65919007122715        3.26229646097801       -0.18923478565996
C           -6.30703856910500        3.45086134389799        0.02262272477103
C           -5.41687411536250        2.39646127876694       -0.10578746285843
C           -5.23529027691070       -1.08424426458086        0.54977946329687
C           -5.62852465731046       -0.63447768787037        1.80374870408430
C           -5.84998150379714       -1.52103852400847        2.84309635864574
C           -5.68946900182256       -2.88118653605727        2.65032214935588
C           -5.30073655550364       -3.34313620932375        1.40684601833264
C           -5.07494450938339       -2.45376457136999        0.37031944837128
O           -5.35921677708860       -0.67741984527545       -1.84268463443992
O            2.12624255270604       -2.26425601020663        1.72586057857815
C            8.84811900972965       -0.37156970831041        1.13607766791747
O            9.56745861926324        0.38331504944505        1.72099569666778
O            8.74594719273090       -1.66505769683905        1.47129951707673
H            8.80548252140570       -1.62193729141105       -1.32127736568942
H            9.81365632826081       -0.17278716902540       -1.27737082811227
H            8.33397071629729       -0.17079726990971       -2.22497452027559
H            7.31913498764820        1.79829346949805       -1.04228904427850
H            8.92279315421173        1.94847901110395       -0.30802800996989
H            7.48907403591017        1.94498573299301        0.70919265093616
H            6.46220952378129       -1.39045711921809       -1.95588159935468
H            4.18881653713315       -2.18149429104168       -1.70675317628605
H            4.07516781189473       -0.65407397689860        2.27466712476010
H            6.35566261092256        0.14263826947229        2.03252956414484
H            2.47235940714697       -2.95540572833923       -0.10431903456027
H            0.51660316671316       -1.44697460682433       -0.17626732484790
H            1.74838801614231       -1.04905973800238       -1.37450608030606
H            1.21302651122852        0.44291256417994        1.23703663835729
H            2.55410888735923        0.79493378115515        0.14261573496671
H            0.71647566868243        2.33531929899205       -0.30642109070402
H            0.99605317351104        1.26455835127158       -1.68576889095039
H           -1.04243110679265        0.49153626885813       -2.66166682948324
H           -1.20396392467363        2.20025005254655       -2.22113415726576
H           -3.42510492453695        2.01971415571568       -1.72440518466404
H           -3.33938177942524        0.60943100865871       -2.74939393042727
H           -2.98364983253003       -0.86053020320040       -0.87958288560110
H           -3.48654934565300        1.13320141882329        1.29223400697447
H           -2.54104196440301       -0.33892484268447        1.25158768893951
H           -0.90081997088879        1.32207830331427        1.37456785465636
H           -1.75957294538051        2.44695653292714        0.31288234392887
H           -7.59830986779642       -0.02602896713411       -0.92976739236442
H           -9.16821509190021        1.83978993959206       -0.70136523105647
H           -8.34992084534218        4.08782253354046       -0.08598036245992
H           -5.93733041939120        4.43068118563504        0.29223478651927
H           -4.37459361225647        2.60108154694931        0.07347208390510
H           -5.77185784550138        0.42195630672704        1.97937878270569
H           -6.15393640442314       -1.14797455956228        3.81091931901497
H           -5.86703556679295       -3.57426966433679        3.46057250610817
H           -5.17204484373123       -4.40436633686470        1.24365266434521
H           -4.77637131805830       -2.85525610110611       -0.58864043216227
H           -4.70755361629215       -1.33126962113001       -2.11692256476704
H            1.94932734641140       -1.43448137033616        2.17799855008885
H            9.30244307344313       -1.88702884324551        2.23413432385800
76
 energy: -107.604983722257 gnorm: 0.007820286754 xtb: 6.6.0 (conda-forge)
C            8.78425251445635       -0.54040001466069       -1.30281176594509
C            8.00367788510118       -0.00009553800409       -0.09590365109967
C            7.92219262594482        1.52914010599839       -0.19093930295377
C            6.59938120659394       -0.56239914453198        0.02268767704192
C            5.95665951431285       -1.21709835770749       -1.01830102034998
C            4.65419133640283       -1.66129729905257       -0.88136021936838
C            3.94379113865199       -1.46534854847727        0.29524502597400
C            4.58617598180760       -0.81114237515648        1.33742712802582
C            5.88951716567498       -0.36866746940668        1.20166283469242
C            2.51892964931143       -1.97843810268541        0.40430716826420
C            1.52270318596616       -1.04400855308543       -0.31514169193669
C            1.53056120681000        0.39534110921389        0.19396014412425
C            0.62051645737070        1.28443349302525       -0.66003268047164
N           -0.76775289185965        0.84715643911780       -0.64484946047185
C           -1.44375499942835        1.16239668647611       -1.89563627217637
C           -2.97514818378124        1.03842764498066       -1.79836103863168
C           -3.40025492946008        0.11847165026089       -0.64943519171901
C           -2.78771254705020        0.55182753902551        0.69133314898297
C           -1.51769345900661        1.37955809028122        0.47532843724971
C           -4.94268004771920       -0.10016846475889       -0.60294049031868
C           -5.83640892711119        1.12680262217416       -0.44200084130425
C           -7.19949517486361        0.93861957877022       -0.65545928612688
C           -8.09491281566756        1.98517567883178       -0.53404231790586
C           -7.64849056384255        3.24950276247070       -0.19002379925034
C           -6.29795376894820        3.44704124400370        0.02670957234135
C           -5.40149456676678        2.39804784232738       -0.09702413027734
C           -5.22525172139850       -1.07553703340729        0.54729320777140
C           -5.62471999383909       -0.62272558304830        1.79817262715754
C           -5.84950159845328       -1.50972594224903        2.83586544036871
C           -5.68667257069355       -2.87002305824575        2.64218568836124
C           -5.29710902885137       -3.33275230459990        1.39854632062540
C           -5.06649355357613       -2.44345563078861        0.36407817138861
O           -5.35051174041420       -0.66372074365589       -1.84593586422763
O            2.12324009430909       -2.24830739166352        1.72899856149470
C            8.83473668093326       -0.37174006430299        1.12859762499223
O            9.54908160715305        0.37689293967732        1.73752046314998
O            8.71623161431058       -1.66680111643993        1.44235901342081
H            8.79687412894799       -1.62646504128430       -1.30361947178330
H            9.80969077671780       -0.17917541772349       -1.26206509658048
H            8.33587976877614       -0.18064106599284       -2.22439948855962
H            7.31715053448071        1.81052197457987       -1.04826236381946
H            8.91919273086831        1.94646062910153       -0.30021515596604
H            7.47657255330969        1.94499682256913        0.70719159981918
H            6.46417832990986       -1.39596940407993       -1.95306246588021
H            4.18357421319759       -2.17811792834907       -1.70601235188417
H            4.07586841709297       -0.65560672963352        2.27722796399398
H            6.36166692389300        0.13575777472256        2.03394663167511
H            2.47691966372219       -2.95592655902560       -0.09312023973250
H            0.51912792586040       -1.45121913517444       -0.19084289302129
H            1.76111963468548       -1.04492817359076       -1.37882955862378
H            1.20098046735677        0.43343065370085        1.23406502908367
H            2.54465940480838        0.79882790691602        0.14498672701931
H            0.71201577402541        2.33011476497579       -0.31863572620178
H            0.97936582480073        1.24369428965476       -1.69140083797162
H           -1.05257614229336        0.47596796024067       -2.65239552878770
H           -1.20405650424379        2.19049680167011       -2.22202957684960
H           -3.42133608099498        2.02463323123836       -1.68336402701394
H           -3.35685810070151        0.63106130801625       -2.73632389269734
H           -2.98042069310747       -0.86998094342839       -0.88011206675674
H           -3.49212959307299        1.12589551915857        1.28975839332074
H           -2.53883336635026       -0.34382585582303        1.26066655132708
H           -0.90038200895850        1.32612496806559        1.37324075039018
H           -1.76970763487898        2.44324030996340        0.31043246697267
H           -7.56190236903963       -0.04080373352122       -0.92819410369350
H           -9.14839110257341        1.81576703381945       -0.70620989321158
H           -8.34345071003345        4.07101915924645       -0.09111621678038
H           -5.93218094149496        4.42815330849563        0.29490343605287
H           -4.36026758454676        2.60209074397275        0.08707726702220
H           -5.77323184118624        0.43390588319825        1.96758528878813
H           -6.15701757736728       -1.13602587984239        3.80187560009600
H           -5.86512377127721       -3.56311122447324        3.45130300153084
H           -5.17023588621300       -4.39304056790888        1.23235365058112
H           -4.77019543913495       -2.83969331068527       -0.59731848842008
H           -4.71432473997317       -1.34033045885134       -2.10389510759157
H            1.96024617323754       -1.41281406166427        2.17682207614955
H            9.27541205937131       -1.88006824296095        2.20410888711255
76
 energy: -107.605678808370 gnorm: 0.007175901278 xtb: 6.6.0 (conda-forge)
C            8.77867532279310       -0.54313821656737       -1.29631750193854
C            7.98889786066816        0.00971063890331       -0.10098706808274
C            7.91329231914124        1.53801740353952       -0.19721901592528
C            6.58787907322542       -0.55229730875728        0.01738179119100
C            5.94676009277393       -1.21173715425844       -1.02266788108108
C            4.64580264968862       -1.65812869146568       -0.88202571286435
C            3.93970096092026       -1.46226920366461        0.29784002142885
C            4.58294953383258       -0.80996359100961        1.34126623132619
C            5.88371367757779       -0.36324683119060        1.20132070616764
C            2.51641211533323       -1.97498589137536        0.40887143811823
C            1.52610286610900       -1.04637609352498       -0.32414567349761
C            1.52370626695994        0.39079982169621        0.19186691571972
C            0.61637505868527        1.27663987864727       -0.66676662853760
N           -0.77152618939037        0.84472383560804       -0.64272573746304
C           -1.44573511764948        1.15414650178201       -1.89486572307892
C           -2.97425544162995        1.04650043399328       -1.78390081481080
C           -3.39153195797727        0.11419389756471       -0.64489537721764
C           -2.78256483250503        0.54349927992743        0.69822614444594
C           -1.51743610800828        1.37779193727239        0.47898017452924
C           -4.92953115506291       -0.09769135176231       -0.60214589620901
C           -5.81330577894529        1.13013682257943       -0.43897668181017
C           -7.17436520709559        0.92957541150124       -0.65574051932027
C           -8.07689586523483        1.96865144561229       -0.53639619127436
C           -7.63806997839744        3.23595986128637       -0.19129174796636
C           -6.29011919826805        3.44431644502848        0.03385085729926
C           -5.38503514598520        2.40199988671167       -0.08554832144370
C           -5.22081868113940       -1.07017866868645        0.54239945120059
C           -5.62423655090539       -0.61256518935140        1.79105417462423
C           -5.84967838844221       -1.49904392666699        2.82867010499058
C           -5.68409419783366       -2.85950883425513        2.63475467369076
C           -5.29178205143920       -3.32509641331529        1.39249686494406
C           -5.05835010511483       -2.43703321359981        0.35811196532497
O           -5.33731797433298       -0.65111935962291       -1.85050687805267
O            2.11537942900970       -2.22662016892807        1.73582690363878
C            8.80142613074838       -0.37328722613192        1.13075572711219
O            9.51790382969599        0.36465552838690        1.75445317015604
O            8.69053903402860       -1.67509830111449        1.41607786813183
H            8.78453878482377       -1.63054162893142       -1.28287930059833
H            9.80662929526127       -0.18843556447497       -1.24736300512688
H            8.34340916188257       -0.19280091407854       -2.22877070455063
H            7.32000236705084        1.82642949460547       -1.06086721674995
H            8.91408175092731        1.95207449136317       -0.29079409883459
H            7.45682872052577        1.95164573313536        0.69786176630073
H            6.45798879586023       -1.39431986948108       -1.95415394819164
H            4.17286032135131       -2.17592005387365       -1.70440785467123
H            4.07498164940773       -0.65935848257306        2.28273468190667
H            6.36260075411681        0.13549014633475        2.03284618119761
H            2.47718251888211       -2.95897046060063       -0.07586403555862
H            0.52123651964092       -1.45693647644515       -0.21601455682564
H            1.78121463430585       -1.04224082441450       -1.38498225541202
H            1.18303149736177        0.42176227953248        1.22922831273763
H            2.53590784990186        0.80128902243564        0.15327460559457
H            0.71300587061851        2.32644670382877       -0.33826074047338
H            0.97024269908741        1.22020836099308       -1.69940672177438
H           -1.06706873424716        0.45286211211682       -2.64517099619304
H           -1.19659587800884        2.17659600926283       -2.23399892698673
H           -3.40704977984478        2.03527445725718       -1.63736177028268
H           -3.37820071004473        0.66423068600590       -2.72400716969904
H           -2.97028700856748       -0.87222096012573       -0.88207503445485
H           -3.49279119102257        1.11272372352493        1.29410873554913
H           -2.53011908766908       -0.35105185518600        1.26864183262666
H           -0.89665509067104        1.33170989505310        1.37503270614017
H           -1.77823110245125        2.43971902342439        0.31192406547908
H           -7.52058125354397       -0.05560837635057       -0.92775990594245
H           -9.12778853266581        1.78962528449652       -0.71166665543585
H           -8.33862012353845        4.05243234639463       -0.09695348932474
H           -5.93098145629424        4.42698800565208        0.30419735546715
H           -4.34634594066004        2.60765901678036        0.10940569799753
H           -5.77360689636415        0.44444519464500        1.95464003800919
H           -6.16135012233181       -1.12402511424900        3.79252308518194
H           -5.86417236435052       -3.55183212742323        3.44334330781288
H           -5.16591514702381       -4.38466452719171        1.22493144826908
H           -4.75788680935388       -2.82777189466328       -0.60359711611197
H           -4.72151720093806       -1.35631527635241       -2.08899545718606
H            1.97447412214716       -1.38151025210035        2.17733733649019