************************************************************
This is node05.cluster of cluster Pinconning.
Date: Wed Jun 19 06:13:58 PDT 2019
************************************************************
 Set GAUSS_MDEF to "32GB".
 Set GAUSS_PDEF to "12".
 Entering Gaussian System, Link 0=gdv
 Initial command:
 /opt/gaussian/gdv-20170407-i10+/gdv/local/l1.exe "/tmp/673917.1.allnodes.q/Gau-18439.inp" -scrdir="/tmp/673917.1.allnodes.q/"
 Default is to use a total of  12 processors:
                               12 via shared-memory
                                1 via Linda
 Entering Link 1 = /opt/gaussian/gdv-20170407-i10+/gdv/local/l1.exe PID=     18440.
  
 Copyright (c) 1988-2017, Gaussian, Inc.  All Rights Reserved.
  
 This is the private, development version of
 the Gaussian(R) DV system of programs. It is based on
 the Gaussian(R) 16 system (copyright 2016, Gaussian, Inc.),
 the Gaussian(R) 09 system (copyright 2009, Gaussian, Inc.),
 the Gaussian(R) 03 system (copyright 2003, Gaussian, Inc.),
 the Gaussian(R) 98 system (copyright 1998, Gaussian, Inc.),
 the Gaussian(R) 94 system (copyright 1995, Gaussian, Inc.),
 the Gaussian 92(TM) system (copyright 1992, Gaussian, Inc.),
 the Gaussian 90(TM) system (copyright 1990, Gaussian, Inc.),
 the Gaussian 88(TM) system (copyright 1988, Gaussian, Inc.),
 the Gaussian 86(TM) system (copyright 1986, Carnegie Mellon
 University), and the Gaussian 82(TM) system (copyright 1983,
 Carnegie Mellon University). Gaussian is a federally registered
 trademark of Gaussian, Inc.
  
 This software contains proprietary and confidential information,
 including trade secrets, belonging to Gaussian, Inc.
  
 This software is provided under written license and may be
 used, copied, transmitted, or stored only in accord with that
 written license.
  
 The following legend is applicable only to US Government
 contracts under FAR:
  
                    RESTRICTED RIGHTS LEGEND
  
 Use, reproduction and disclosure by the US Government is
 subject to restrictions as set forth in subparagraphs (a)
 and (c) of the Commercial Computer Software - Restricted
 Rights clause in FAR 52.227-19.
  
 Gaussian, Inc.
 340 Quinnipiac St., Bldg. 40, Wallingford CT 06492
  
  
 ---------------------------------------------------------------
 Warning -- This program may not be used in any manner that
 competes with the business of Gaussian, Inc. or will provide
 assistance to any competitor of Gaussian, Inc.  The licensee
 of this program is prohibited from giving any competitor of
 Gaussian, Inc. access to this program.  By using this program,
 the user acknowledges that Gaussian, Inc. is engaged in the
 business of creating and licensing software in the field of
 computational chemistry and represents and warrants to the
 licensee that it is not a competitor of Gaussian, Inc. and that
 it will not use this program in any manner prohibited above.
 ---------------------------------------------------------------
  

 Cite this work as:
 Gaussian Development Version, Revision I.10+,
 M. J. Frisch, G. W. Trucks, H. B. Schlegel, G. E. Scuseria, 
 M. A. Robb, J. R. Cheeseman, G. Scalmani, V. Barone, 
 G. A. Petersson, H. Nakatsuji, X. Li, M. Caricato, A. V. Marenich, 
 J. Bloino, B. G. Janesko, R. Gomperts, B. Mennucci, H. P. Hratchian, 
 J. V. Ortiz, A. F. Izmaylov, J. L. Sonnenberg, D. Williams-Young, 
 F. Ding, F. Lipparini, F. Egidi, J. Goings, B. Peng, A. Petrone, 
 T. Henderson, D. Ranasinghe, V. G. Zakrzewski, J. Gao, N. Rega, 
 G. Zheng, W. Liang, M. Hada, M. Ehara, K. Toyota, R. Fukuda, 
 J. Hasegawa, M. Ishida, T. Nakajima, Y. Honda, O. Kitao, H. Nakai, 
 T. Vreven, K. Throssell, J. A. Montgomery, Jr., J. E. Peralta, 
 F. Ogliaro, M. J. Bearpark, J. J. Heyd, E. N. Brothers, K. N. Kudin, 
 V. N. Staroverov, T. A. Keith, R. Kobayashi, J. Normand, 
 K. Raghavachari, A. P. Rendell, J. C. Burant, S. S. Iyengar, 
 J. Tomasi, M. Cossi, J. M. Millam, M. Klene, C. Adamo, R. Cammi, 
 J. W. Ochterski, R. L. Martin, K. Morokuma, O. Farkas, 
 J. B. Foresman, and D. J. Fox, Gaussian, Inc., Wallingford CT, 2016.
 
 *******************************************
 Gaussian DV:  ES64L-GDVRevI.10+ 27-Mar-2017
                 19-Jun-2019 
 *******************************************
 %chk=1-1-oso.chk
 ----------------------------------------------------------------------
 #p ub3lyp/6-311+G* scf=(novaracc,maxcycles=512) int=(acc2e=12,grid=ult
 rafine) geom=connectivity opt freq
 ----------------------------------------------------------------------
 1/18=20,19=15,26=4,38=1,57=2/1,3;
 2/9=110,12=2,17=6,18=5,40=1/2;
 3/5=4,6=6,7=11,11=2,25=1,27=12,30=1,71=1,74=-5,75=-5,116=2/1,2,3;
 4//1;
 5/5=2,7=512,38=1,87=12/2;
 6/7=2,8=2,9=2,10=2,28=1,87=12/1;
 7/87=12/1,2,3,16;
 1/18=20,19=15,26=4/3(2);
 2/9=110/2;
 99//99;
 2/9=110/2;
 3/5=4,6=6,7=11,11=2,25=1,27=12,30=1,71=1,74=-5,75=-5,116=2/1,2,3;
 4/5=5,16=3,69=1/1;
 5/5=2,7=512,38=1,87=12/2;
 7/87=12/1,2,3,16;
 1/18=20,19=15,26=4/3(-5);
 2/9=110/2;
 6/7=2,8=2,9=2,10=2,19=2,28=1,87=12/1;
 99/9=1/99;
 Leave Link    1 at Wed Jun 19 06:13:58 2019, MaxMem=           0 cpu:               1.0 elap:               0.1
 (Enter /opt/gaussian/gdv-20170407-i10+/gdv/l101.exe)
 -------------------
 Title Card Required
 -------------------
 Symbolic Z-matrix:
 Charge = -1 Multiplicity = 1
 B                    -2.02426  -0.00022   0.04037 
 B                    -0.83013   0.89249  -0.26505 
 B                     0.82856   0.89225  -0.26682 
 B                     2.02317   0.00029   0.03928 
 B                    -0.82957  -0.89222  -0.26537 
 B                     0.82911  -0.892    -0.26774 
 Li                    0.00522  -0.00098   1.64224 
 
 Add virtual bond connecting atoms Li7        and B2         Dist= 4.28D+00.
 Add virtual bond connecting atoms Li7        and B3         Dist= 4.28D+00.
 Add virtual bond connecting atoms Li7        and B5         Dist= 4.28D+00.
 Add virtual bond connecting atoms Li7        and B6         Dist= 4.28D+00.
 Add atom      6 valence  3 ND=      2 dihedral       7      5      6      3
 ITRead=  0  0  0  0  0  0  0
 MicOpt= -1 -1 -1 -1 -1 -1 -1
 NAtoms=      7 NQM=        7 NQMF=       0 NMMI=      0 NMMIF=      0
                NMic=       0 NMicF=      0.
                    Isotopes and Nuclear Properties:
 (Nuclear quadrupole moments (NQMom) in fm**2, nuclear magnetic moments (NMagM)
  in nuclear magnetons)

  Atom         1           2           3           4           5           6           7
 IAtWgt=          11          11          11          11          11          11           7
 AtmWgt=  11.0093053  11.0093053  11.0093053  11.0093053  11.0093053  11.0093053   7.0160045
 NucSpn=           3           3           3           3           3           3           3
 AtZEff=  -0.0000000  -0.0000000  -0.0000000  -0.0000000  -0.0000000  -0.0000000  -0.0000000
 NQMom=    4.0590000   4.0590000   4.0590000   4.0590000   4.0590000   4.0590000  -4.0100000
 NMagM=    2.6886370   2.6886370   2.6886370   2.6886370   2.6886370   2.6886370   3.2564240
 AtZNuc=   5.0000000   5.0000000   5.0000000   5.0000000   5.0000000   5.0000000   3.0000000
 Leave Link  101 at Wed Jun 19 06:13:58 2019, MaxMem=  4294967296 cpu:               4.9 elap:               0.4
 (Enter /opt/gaussian/gdv-20170407-i10+/gdv/l103.exe)

 GradGradGradGradGradGradGradGradGradGradGradGradGradGradGradGradGradGrad
 Berny optimization.
 Initialization pass.
                           ----------------------------
                           !    Initial Parameters    !
                           ! (Angstroms and Degrees)  !
 --------------------------                            --------------------------
 ! Name  Definition              Value          Derivative Info.                !
 --------------------------------------------------------------------------------
 ! R1    R(1,2)                  1.5219         estimate D2E/DX2                !
 ! R2    R(1,3)                  3.0049         estimate D2E/DX2                !
 ! R3    R(2,4)                  3.005          estimate D2E/DX2                !
 ! R4    R(2,7)                  2.2658         estimate D2E/DX2                !
 ! R5    R(3,6)                  1.7843         estimate D2E/DX2                !
 ! R6    R(3,7)                  2.2628         estimate D2E/DX2                !
 ! R7    R(4,5)                  3.0046         estimate D2E/DX2                !
 ! R8    R(5,6)                  1.6587         estimate D2E/DX2                !
 ! R9    R(5,7)                  2.265          estimate D2E/DX2                !
 ! R10   R(6,7)                  2.2629         estimate D2E/DX2                !
 ! A1    A(2,1,3)               20.0063         estimate D2E/DX2                !
 ! A2    A(1,2,4)              123.4042         estimate D2E/DX2                !
 ! A3    A(1,2,7)               83.6297         estimate D2E/DX2                !
 ! A4    A(4,2,7)               56.4684         estimate D2E/DX2                !
 ! A5    A(1,3,6)               72.743          estimate D2E/DX2                !
 ! A6    A(1,3,7)               56.7063         estimate D2E/DX2                !
 ! A7    A(2,4,5)               34.5524         estimate D2E/DX2                !
 ! A8    A(4,5,6)               18.3126         estimate D2E/DX2                !
 ! A9    A(4,5,7)               56.4807         estimate D2E/DX2                !
 ! A10   A(3,6,5)               89.9896         estimate D2E/DX2                !
 ! A11   A(2,7,3)               42.9714         estimate D2E/DX2                !
 ! A12   A(2,7,5)               46.3958         estimate D2E/DX2                !
 ! A13   A(2,7,6)               65.103          estimate D2E/DX2                !
 ! A14   A(3,7,5)               65.0944         estimate D2E/DX2                !
 ! D1    D(3,1,2,4)             -0.0783         estimate D2E/DX2                !
 ! D2    D(3,1,2,7)            -42.3942         estimate D2E/DX2                !
 ! D3    D(2,1,3,6)           -160.2369         estimate D2E/DX2                !
 ! D4    D(2,1,3,7)            126.6111         estimate D2E/DX2                !
 ! D5    D(1,2,4,5)             19.8114         estimate D2E/DX2                !
 ! D6    D(7,2,4,5)             73.1938         estimate D2E/DX2                !
 ! D7    D(1,2,7,3)            153.2955         estimate D2E/DX2                !
 ! D8    D(1,2,7,5)             53.5553         estimate D2E/DX2                !
 ! D9    D(1,2,7,6)            101.3478         estimate D2E/DX2                !
 ! D10   D(4,2,7,3)             15.6881         estimate D2E/DX2                !
 ! D11   D(4,2,7,5)            -84.0521         estimate D2E/DX2                !
 ! D12   D(4,2,7,6)            -36.2595         estimate D2E/DX2                !
 ! D13   D(1,3,6,5)              6.0726         estimate D2E/DX2                !
 ! D14   D(1,3,7,2)            -15.7008         estimate D2E/DX2                !
 ! D15   D(1,3,7,5)             36.1921         estimate D2E/DX2                !
 ! D16   D(2,4,5,6)            159.985          estimate D2E/DX2                !
 ! D17   D(2,4,5,7)            -73.2353         estimate D2E/DX2                !
 ! D18   D(4,5,6,3)            -19.0586         estimate D2E/DX2                !
 ! D19   D(7,5,6,3)            -64.945          estimate D2E/DX2                !
 ! D20   D(4,5,7,2)             84.0493         estimate D2E/DX2                !
 ! D21   D(4,5,7,3)             36.2591         estimate D2E/DX2                !
 --------------------------------------------------------------------------------
 Trust Radius=3.00D-01 FncErr=1.00D-07 GrdErr=1.00D-06 EigMax=2.50D+02 EigMin=1.00D-04
 Number of steps in this run=     55 maximum allowed number of steps=    100.
 GradGradGradGradGradGradGradGradGradGradGradGradGradGradGradGradGradGrad

 Leave Link  103 at Wed Jun 19 06:13:58 2019, MaxMem=  4294967296 cpu:               0.1 elap:               0.0
 (Enter /opt/gaussian/gdv-20170407-i10+/gdv/l202.exe)
                          Input orientation:                          
 ---------------------------------------------------------------------
 Center     Atomic      Atomic             Coordinates (Angstroms)
 Number     Number       Type             X           Y           Z
 ---------------------------------------------------------------------
      1          5           0       -2.024263   -0.000220    0.040365
      2          5           0       -0.830130    0.892494   -0.265047
      3          5           0        0.828555    0.892249   -0.266824
      4          5           0        2.023165    0.000286    0.039275
      5          5           0       -0.829569   -0.892216   -0.265371
      6          5           0        0.829108   -0.892002   -0.267739
      7          3           0        0.005223   -0.000983    1.642235
 ---------------------------------------------------------------------
                    Distance matrix (angstroms):
                    1          2          3          4          5
     1  B    0.000000
     2  B    1.521896   0.000000
     3  B    3.004902   1.658686   0.000000
     4  B    4.047428   3.004986   1.521968   0.000000
     5  B    1.521981   1.784710   2.435917   3.004573   0.000000
     6  B    3.005317   2.436699   1.784251   1.521909   1.658679
     7  Li   2.585498   2.265798   2.262796   2.577125   2.264980
                    6          7
     6  B    0.000000
     7  Li   2.262897   0.000000
 Stoichiometry    B6Li(1-)
 Framework group  C1[X(B6Li)]
 Deg. of freedom    15
 Full point group                 C1      NOp   1
 Largest Abelian subgroup         C1      NOp   1
 Largest concise Abelian subgroup C1      NOp   1
                         Standard orientation:                         
 ---------------------------------------------------------------------
 Center     Atomic      Atomic             Coordinates (Angstroms)
 Number     Number       Type             X           Y           Z
 ---------------------------------------------------------------------
      1          5           0       -2.024263   -0.000220    0.040365
      2          5           0       -0.830130    0.892494   -0.265047
      3          5           0        0.828555    0.892249   -0.266824
      4          5           0        2.023165    0.000286    0.039275
      5          5           0       -0.829569   -0.892216   -0.265371
      6          5           0        0.829108   -0.892002   -0.267739
      7          3           0        0.005223   -0.000983    1.642235
 ---------------------------------------------------------------------
 Rotational constants (GHZ):           8.8461489           3.5456037           3.2495576
 Leave Link  202 at Wed Jun 19 06:13:58 2019, MaxMem=  4294967296 cpu:               0.1 elap:               0.0
 (Enter /opt/gaussian/gdv-20170407-i10+/gdv/l301.exe)
 Standard basis: 6-311+G(d) (5D, 7F)
 Ernie: Thresh=  0.10000D-02 Tol=  0.10000D-05 Strict=F.
 There are   161 symmetry adapted cartesian basis functions of A   symmetry.
 There are   154 symmetry adapted basis functions of A   symmetry.
   154 basis functions,   252 primitive gaussians,   161 cartesian basis functions
    17 alpha electrons       17 beta electrons
       nuclear repulsion energy       117.4614481745 Hartrees.
 IExCor=  402 DFT=T Ex+Corr=B3LYP ExCW=0 ScaHFX=  0.200000
 ScaDFX=  0.800000  0.720000  1.000000  0.810000 ScalE2=  1.000000  1.000000
 IRadAn=      5 IRanWt=     -1 IRanGd=            0 ICorTp=0 IEmpDi=  4
 NAtoms=    7 NActive=    7 NUniq=    7 SFac= 1.00D+00 NAtFMM=   60 NAOKFM=F Big=F
 Integral buffers will be    131072 words long.
 Raffenetti 2 integral format.
 Two-electron integral symmetry is turned on.
 Leave Link  301 at Wed Jun 19 06:13:59 2019, MaxMem=  4294967296 cpu:               0.7 elap:               0.1
 (Enter /opt/gaussian/gdv-20170407-i10+/gdv/l302.exe)
 NPDir=0 NMtPBC=     1 NCelOv=     1 NCel=       1 NClECP=     1 NCelD=      1
         NCelK=      1 NCelE2=     1 NClLst=     1 CellRange=     0.0.
 One-electron integrals computed using PRISM.
 One-electron integral symmetry used in STVInt
 NBasis=   154 RedAO= T EigKep=  6.48D-06  NBF=   154
 NBsUse=   154 1.00D-06 EigRej= -1.00D+00 NBFU=   154
 Precomputing XC quadrature grid using
 IXCGrd= 4 IRadAn=           5 IRanWt=          -1 IRanGd=           0 AccXCQ= 1.00D-12.
 Generated NRdTot=       0 NPtTot=           0 NUsed=           0 NTot=          32
 NSgBfM=   161   161   161   161   161 MxSgAt=     7 MxSgA2=     7.
 Leave Link  302 at Wed Jun 19 06:13:59 2019, MaxMem=  4294967296 cpu:               2.2 elap:               0.2
 (Enter /opt/gaussian/gdv-20170407-i10+/gdv/l303.exe)
 DipDrv:  MaxL=1.
 Leave Link  303 at Wed Jun 19 06:13:59 2019, MaxMem=  4294967296 cpu:               0.3 elap:               0.0
 (Enter /opt/gaussian/gdv-20170407-i10+/gdv/l401.exe)
 ExpMin= 7.40D-03 ExpMax= 2.86D+03 ExpMxC= 4.28D+02 IAcc=3 IRadAn=         5 AccDes= 0.00D+00
 Harris functional with IExCor=  402 and IRadAn=       5 diagonalized for initial guess.
 HarFok:  IExCor=  402 AccDes= 0.00D+00 IRadAn=         5 IDoV= 1 UseB2=F ITyADJ=14
 ICtDFT=  3500011 ScaDFX=  1.000000  1.000000  1.000000  1.000000
 FoFCou: FMM=F IPFlag=           0 FMFlag=      100000 FMFlg1=           0
         NFxFlg=           0 DoJE=T BraDBF=F KetDBF=T FulRan=T
         wScrn=  0.000000 ICntrl=       500 IOpCl=  0 I1Cent=   200000004 NGrid=           0
         NMat0=    1 NMatS0=      1 NMatT0=    0 NMatD0=    1 NMtDS0=    0 NMtDT0=    0
 Petite list used in FoFCou.
 Harris En= -156.787094817067    
 JPrj=0 DoOrth=F DoCkMO=F.
 Initial guess <Sx>= 0.0000 <Sy>= 0.0000 <Sz>= 0.0000 <S**2>=-0.0000 S=-0.0000
 Leave Link  401 at Wed Jun 19 06:13:59 2019, MaxMem=  4294967296 cpu:               5.4 elap:               0.5
 (Enter /opt/gaussian/gdv-20170407-i10+/gdv/l502.exe)
 Keep R1 and R2 ints in memory in canonical form, NReq=154304981.
 FoFCou: FMM=F IPFlag=           0 FMFlag=           0 FMFlg1=           0
         NFxFlg=           0 DoJE=F BraDBF=F KetDBF=F FulRan=T
         wScrn=  0.000000 ICntrl=       600 IOpCl=  0 I1Cent=           0 NGrid=           0
         NMat0=    1 NMatS0=  11935 NMatT0=    0 NMatD0=    1 NMtDS0=    0 NMtDT0=    0
 Symmetry not used in FoFCou.
 Two-electron integral symmetry not used.
 UHF open shell SCF:
 Using DIIS extrapolation, IDIIS=  1040.
 NGot=  4294967296 LenX=  4152455811 LenY=  4152429449
 Requested convergence on RMS density matrix=1.00D-08 within 512 cycles.
 Requested convergence on MAX density matrix=1.00D-06.
 Requested convergence on             energy=1.00D-06.
 No special actions if energy rises.

 Cycle   1  Pass 1  IDiag  1:
 E= -156.116911998830    
 DIIS: error= 5.94D-02 at cycle   1 NSaved=   1.
 NSaved= 1 IEnMin= 1 EnMin= -156.116911998830     IErMin= 1 ErrMin= 5.94D-02
 ErrMax= 5.94D-02  0.00D+00 EMaxC= 1.00D-01 BMatC= 9.58D-01 BMatP= 9.58D-01
 IDIUse=3 WtCom= 4.06D-01 WtEn= 5.94D-01
 Coeff-Com:  0.100D+01
 Coeff-En:   0.100D+01
 Coeff:      0.100D+01
 Gap=     0.135 Goal=   None    Shift=    0.000
 Gap=     0.135 Goal=   None    Shift=    0.000
 GapD=    0.135 DampG=1.000 DampE=0.500 DampFc=0.5000 IDamp=-1.
 Damping current iteration by 5.00D-01
 RMSDP=4.03D+00 MaxDP=2.76D+02              OVMax= 9.98D-01

 Cycle   2  Pass 1  IDiag  1:
 E= -155.109034538540     Delta-E=        1.007877460290 Rises=F Damp=T
 DIIS: error= 6.10D-02 at cycle   2 NSaved=   2.
 NSaved= 2 IEnMin= 1 EnMin= -156.116911998830     IErMin= 1 ErrMin= 5.94D-02
 ErrMax= 6.10D-02  0.00D+00 EMaxC= 1.00D-01 BMatC= 5.89D-01 BMatP= 9.58D-01
 IDIUse=3 WtCom= 3.90D-01 WtEn= 6.10D-01
 Coeff-Com:  0.423D+00 0.577D+00
 Coeff-En:   0.810D+00 0.190D+00
 Coeff:      0.659D+00 0.341D+00
 Gap=    -0.020 Goal=   None    Shift=    0.000
 Gap=    -0.020 Goal=   None    Shift=    0.000
 RMSDP=2.03D+00 MaxDP=1.39D+02 DE= 1.01D+00 OVMax= 9.94D-01

 Cycle   3  Pass 1  IDiag  1:
 E= -156.481576862614     Delta-E=       -1.372542324074 Rises=F Damp=F
 DIIS: error= 1.45D-02 at cycle   3 NSaved=   3.
 NSaved= 3 IEnMin= 3 EnMin= -156.481576862614     IErMin= 3 ErrMin= 1.45D-02
 ErrMax= 1.45D-02  0.00D+00 EMaxC= 1.00D-01 BMatC= 6.05D-02 BMatP= 5.89D-01
 IDIUse=3 WtCom= 8.55D-01 WtEn= 1.45D-01
 Coeff-Com:  0.188D+00 0.424D-01 0.770D+00
 Coeff-En:   0.000D+00 0.000D+00 0.100D+01
 Coeff:      0.160D+00 0.362D-01 0.803D+00
 Gap=     0.099 Goal=   None    Shift=    0.000
 Gap=     0.099 Goal=   None    Shift=    0.000
 RMSDP=2.97D-03 MaxDP=6.72D-02 DE=-1.37D+00 OVMax= 8.67D-02

 Cycle   4  Pass 1  IDiag  1:
 E= -156.492038629262     Delta-E=       -0.010461766647 Rises=F Damp=F
 DIIS: error= 1.18D-02 at cycle   4 NSaved=   4.
 NSaved= 4 IEnMin= 4 EnMin= -156.492038629262     IErMin= 4 ErrMin= 1.18D-02
 ErrMax= 1.18D-02  0.00D+00 EMaxC= 1.00D-01 BMatC= 2.60D-02 BMatP= 6.05D-02
 IDIUse=3 WtCom= 8.82D-01 WtEn= 1.18D-01
 Coeff-Com:  0.841D-01 0.242D-01 0.455D+00 0.436D+00
 Coeff-En:   0.000D+00 0.000D+00 0.289D+00 0.711D+00
 Coeff:      0.742D-01 0.213D-01 0.436D+00 0.469D+00
 Gap=     0.091 Goal=   None    Shift=    0.000
 Gap=     0.091 Goal=   None    Shift=    0.000
 RMSDP=1.15D-03 MaxDP=1.75D-02 DE=-1.05D-02 OVMax= 5.56D-02

 Cycle   5  Pass 1  IDiag  1:
 E= -156.499299457603     Delta-E=       -0.007260828341 Rises=F Damp=F
 DIIS: error= 4.74D-03 at cycle   5 NSaved=   5.
 NSaved= 5 IEnMin= 5 EnMin= -156.499299457603     IErMin= 5 ErrMin= 4.74D-03
 ErrMax= 4.74D-03  0.00D+00 EMaxC= 1.00D-01 BMatC= 5.39D-03 BMatP= 2.60D-02
 IDIUse=3 WtCom= 9.53D-01 WtEn= 4.74D-02
 Coeff-Com:  0.108D-01 0.236D-02 0.994D-01 0.320D+00 0.568D+00
 Coeff-En:   0.000D+00 0.000D+00 0.000D+00 0.217D+00 0.783D+00
 Coeff:      0.103D-01 0.224D-02 0.947D-01 0.315D+00 0.578D+00
 Gap=     0.087 Goal=   None    Shift=    0.000
 Gap=     0.087 Goal=   None    Shift=    0.000
 RMSDP=7.65D-04 MaxDP=2.94D-02 DE=-7.26D-03 OVMax= 1.90D-02

 Cycle   6  Pass 1  IDiag  1:
 E= -156.501147274190     Delta-E=       -0.001847816587 Rises=F Damp=F
 DIIS: error= 1.05D-03 at cycle   6 NSaved=   6.
 NSaved= 6 IEnMin= 6 EnMin= -156.501147274190     IErMin= 6 ErrMin= 1.05D-03
 ErrMax= 1.05D-03  0.00D+00 EMaxC= 1.00D-01 BMatC= 2.46D-04 BMatP= 5.39D-03
 IDIUse=3 WtCom= 9.89D-01 WtEn= 1.05D-02
 Coeff-Com:  0.257D-02 0.575D-03 0.178D-01 0.120D+00 0.289D+00 0.570D+00
 Coeff-En:   0.000D+00 0.000D+00 0.000D+00 0.000D+00 0.000D+00 0.100D+01
 Coeff:      0.254D-02 0.569D-03 0.176D-01 0.119D+00 0.286D+00 0.575D+00
 Gap=     0.088 Goal=   None    Shift=    0.000
 Gap=     0.088 Goal=   None    Shift=    0.000
 RMSDP=2.71D-04 MaxDP=4.62D-03 DE=-1.85D-03 OVMax= 3.54D-03

 Cycle   7  Pass 1  IDiag  1:
 E= -156.501237032322     Delta-E=       -0.000089758133 Rises=F Damp=F
 DIIS: error= 1.93D-04 at cycle   7 NSaved=   7.
 NSaved= 7 IEnMin= 7 EnMin= -156.501237032322     IErMin= 7 ErrMin= 1.93D-04
 ErrMax= 1.93D-04  0.00D+00 EMaxC= 1.00D-01 BMatC= 1.20D-05 BMatP= 2.46D-04
 IDIUse=3 WtCom= 9.98D-01 WtEn= 1.93D-03
 Coeff-Com:  0.993D-03-0.414D-03-0.220D-03 0.115D-01 0.430D-01 0.210D+00
 Coeff-Com:  0.735D+00
 Coeff-En:   0.000D+00 0.000D+00 0.000D+00 0.000D+00 0.000D+00 0.000D+00
 Coeff-En:   0.100D+01
 Coeff:      0.991D-03-0.413D-03-0.220D-03 0.115D-01 0.429D-01 0.210D+00
 Coeff:      0.736D+00
 Gap=     0.088 Goal=   None    Shift=    0.000
 Gap=     0.088 Goal=   None    Shift=    0.000
 RMSDP=1.21D-04 MaxDP=5.19D-03 DE=-8.98D-05 OVMax= 2.48D-03

 Cycle   8  Pass 1  IDiag  1:
 E= -156.501235175550     Delta-E=        0.000001856772 Rises=F Damp=F
 DIIS: error= 3.58D-04 at cycle   8 NSaved=   8.
 NSaved= 8 IEnMin= 7 EnMin= -156.501237032322     IErMin= 7 ErrMin= 1.93D-04
 ErrMax= 3.58D-04  0.00D+00 EMaxC= 1.00D-01 BMatC= 1.55D-05 BMatP= 1.20D-05
 IDIUse=3 WtCom= 9.98D-01 WtEn= 1.93D-03
 Coeff-Com:  0.785D-03-0.419D-03-0.850D-03 0.260D-02 0.175D-01 0.133D+00
 Coeff-Com:  0.585D+00 0.262D+00
 Coeff-En:   0.000D+00 0.000D+00 0.000D+00 0.000D+00 0.000D+00 0.000D+00
 Coeff-En:   0.575D+00 0.425D+00
 Coeff:      0.784D-03-0.418D-03-0.849D-03 0.260D-02 0.175D-01 0.133D+00
 Coeff:      0.585D+00 0.262D+00
 Gap=     0.088 Goal=   None    Shift=    0.000
 Gap=     0.088 Goal=   None    Shift=    0.000
 RMSDP=2.95D-05 MaxDP=8.34D-04 DE= 1.86D-06 OVMax= 1.89D-03

 Cycle   9  Pass 1  IDiag  1:
 E= -156.501241775792     Delta-E=       -0.000006600242 Rises=F Damp=F
 DIIS: error= 4.82D-05 at cycle   9 NSaved=   9.
 NSaved= 9 IEnMin= 9 EnMin= -156.501241775792     IErMin= 9 ErrMin= 4.82D-05
 ErrMax= 4.82D-05  0.00D+00 EMaxC= 1.00D-01 BMatC= 4.79D-07 BMatP= 1.20D-05
 IDIUse=1 WtCom= 1.00D+00 WtEn= 0.00D+00
 Coeff-Com:  0.381D-03-0.184D-03 0.475D-03-0.128D-02-0.524D-02-0.876D-02
 Coeff-Com:  0.216D-01 0.127D+00 0.866D+00
 Coeff:      0.381D-03-0.184D-03 0.475D-03-0.128D-02-0.524D-02-0.876D-02
 Coeff:      0.216D-01 0.127D+00 0.866D+00
 Gap=     0.088 Goal=   None    Shift=    0.000
 Gap=     0.088 Goal=   None    Shift=    0.000
 RMSDP=2.00D-05 MaxDP=8.51D-04 DE=-6.60D-06 OVMax= 2.51D-04

 Cycle  10  Pass 1  IDiag  1:
 E= -156.501241993703     Delta-E=       -0.000000217910 Rises=F Damp=F
 DIIS: error= 9.73D-06 at cycle  10 NSaved=  10.
 NSaved=10 IEnMin=10 EnMin= -156.501241993703     IErMin=10 ErrMin= 9.73D-06
 ErrMax= 9.73D-06  0.00D+00 EMaxC= 1.00D-01 BMatC= 2.00D-08 BMatP= 4.79D-07
 IDIUse=1 WtCom= 1.00D+00 WtEn= 0.00D+00
 Coeff-Com:  0.848D-04-0.482D-04 0.249D-03 0.596D-03 0.396D-03-0.462D-02
 Coeff-Com: -0.239D-01-0.103D-01 0.102D-01 0.103D+01
 Coeff:      0.848D-04-0.482D-04 0.249D-03 0.596D-03 0.396D-03-0.462D-02
 Coeff:     -0.239D-01-0.103D-01 0.102D-01 0.103D+01
 Gap=     0.088 Goal=   None    Shift=    0.000
 Gap=     0.088 Goal=   None    Shift=    0.000
 RMSDP=2.69D-06 MaxDP=1.33D-04 DE=-2.18D-07 OVMax= 4.17D-05

 Cycle  11  Pass 1  IDiag  1:
 E= -156.501242002643     Delta-E=       -0.000000008941 Rises=F Damp=F
 DIIS: error= 3.91D-06 at cycle  11 NSaved=  11.
 NSaved=11 IEnMin=11 EnMin= -156.501242002643     IErMin=11 ErrMin= 3.91D-06
 ErrMax= 3.91D-06  0.00D+00 EMaxC= 1.00D-01 BMatC= 3.03D-09 BMatP= 2.00D-08
 IDIUse=1 WtCom= 1.00D+00 WtEn= 0.00D+00
 Coeff-Com:  0.232D-04-0.959D-05 0.628D-04 0.443D-03 0.654D-03-0.206D-03
 Coeff-Com: -0.778D-02-0.126D-01-0.640D-01 0.319D+00 0.765D+00
 Coeff:      0.232D-04-0.959D-05 0.628D-04 0.443D-03 0.654D-03-0.206D-03
 Coeff:     -0.778D-02-0.126D-01-0.640D-01 0.319D+00 0.765D+00
 Gap=     0.088 Goal=   None    Shift=    0.000
 Gap=     0.088 Goal=   None    Shift=    0.000
 RMSDP=1.43D-06 MaxDP=5.30D-05 DE=-8.94D-09 OVMax= 1.87D-05

 Cycle  12  Pass 1  IDiag  1:
 E= -156.501242003631     Delta-E=       -0.000000000987 Rises=F Damp=F
 DIIS: error= 2.41D-06 at cycle  12 NSaved=  12.
 NSaved=12 IEnMin=12 EnMin= -156.501242003631     IErMin=12 ErrMin= 2.41D-06
 ErrMax= 2.41D-06  0.00D+00 EMaxC= 1.00D-01 BMatC= 1.18D-09 BMatP= 3.03D-09
 IDIUse=1 WtCom= 1.00D+00 WtEn= 0.00D+00
 Coeff-Com:  0.785D-05-0.129D-05 0.141D-04 0.262D-03 0.441D-03 0.531D-03
 Coeff-Com: -0.233D-02-0.781D-02-0.485D-01 0.965D-01 0.557D+00 0.404D+00
 Coeff:      0.785D-05-0.129D-05 0.141D-04 0.262D-03 0.441D-03 0.531D-03
 Coeff:     -0.233D-02-0.781D-02-0.485D-01 0.965D-01 0.557D+00 0.404D+00
 Gap=     0.088 Goal=   None    Shift=    0.000
 Gap=     0.088 Goal=   None    Shift=    0.000
 RMSDP=5.97D-07 MaxDP=1.76D-05 DE=-9.87D-10 OVMax= 9.64D-06

 Cycle  13  Pass 1  IDiag  1:
 E= -156.501242004064     Delta-E=       -0.000000000433 Rises=F Damp=F
 DIIS: error= 3.84D-07 at cycle  13 NSaved=  13.
 NSaved=13 IEnMin=13 EnMin= -156.501242004064     IErMin=13 ErrMin= 3.84D-07
 ErrMax= 3.84D-07  0.00D+00 EMaxC= 1.00D-01 BMatC= 3.56D-11 BMatP= 1.18D-09
 IDIUse=1 WtCom= 1.00D+00 WtEn= 0.00D+00
 Coeff-Com:  0.230D-05-0.161D-06 0.226D-05 0.942D-04 0.164D-03 0.285D-03
 Coeff-Com: -0.403D-03-0.264D-02-0.175D-01 0.231D-01 0.203D+00 0.202D+00
 Coeff-Com:  0.592D+00
 Coeff:      0.230D-05-0.161D-06 0.226D-05 0.942D-04 0.164D-03 0.285D-03
 Coeff:     -0.403D-03-0.264D-02-0.175D-01 0.231D-01 0.203D+00 0.202D+00
 Coeff:      0.592D+00
 Gap=     0.088 Goal=   None    Shift=    0.000
 Gap=     0.088 Goal=   None    Shift=    0.000
 RMSDP=2.17D-07 MaxDP=9.44D-06 DE=-4.33D-10 OVMax= 1.89D-06

 Cycle  14  Pass 1  IDiag  1:
 E= -156.501242004074     Delta-E=       -0.000000000010 Rises=F Damp=F
 DIIS: error= 1.83D-07 at cycle  14 NSaved=  14.
 NSaved=14 IEnMin=14 EnMin= -156.501242004074     IErMin=14 ErrMin= 1.83D-07
 ErrMax= 1.83D-07  0.00D+00 EMaxC= 1.00D-01 BMatC= 9.52D-12 BMatP= 3.56D-11
 IDIUse=1 WtCom= 1.00D+00 WtEn= 0.00D+00
 Coeff-Com: -0.249D-06 0.375D-07-0.139D-05 0.269D-08 0.237D-05 0.516D-04
 Coeff-Com:  0.291D-03 0.198D-03 0.517D-03-0.520D-02-0.241D-02 0.313D-01
 Coeff-Com:  0.371D+00 0.604D+00
 Coeff:     -0.249D-06 0.375D-07-0.139D-05 0.269D-08 0.237D-05 0.516D-04
 Coeff:      0.291D-03 0.198D-03 0.517D-03-0.520D-02-0.241D-02 0.313D-01
 Coeff:      0.371D+00 0.604D+00
 Gap=     0.088 Goal=   None    Shift=    0.000
 Gap=     0.088 Goal=   None    Shift=    0.000
 RMSDP=1.13D-07 MaxDP=5.21D-06 DE=-1.03D-11 OVMax= 7.73D-07

 Cycle  15  Pass 1  IDiag  1:
 E= -156.501242004076     Delta-E=       -0.000000000002 Rises=F Damp=F
 DIIS: error= 1.54D-08 at cycle  15 NSaved=  15.
 NSaved=15 IEnMin=15 EnMin= -156.501242004076     IErMin=15 ErrMin= 1.54D-08
 ErrMax= 1.54D-08  0.00D+00 EMaxC= 1.00D-01 BMatC= 1.29D-13 BMatP= 9.52D-12
 IDIUse=1 WtCom= 1.00D+00 WtEn= 0.00D+00
 Coeff-Com: -0.167D-06 0.237D-07-0.660D-06-0.151D-05-0.207D-05 0.170D-04
 Coeff-Com:  0.136D-03 0.135D-03 0.533D-03-0.232D-02-0.477D-02 0.916D-02
 Coeff-Com:  0.143D+00 0.252D+00 0.602D+00
 Coeff:     -0.167D-06 0.237D-07-0.660D-06-0.151D-05-0.207D-05 0.170D-04
 Coeff:      0.136D-03 0.135D-03 0.533D-03-0.232D-02-0.477D-02 0.916D-02
 Coeff:      0.143D+00 0.252D+00 0.602D+00
 Gap=     0.088 Goal=   None    Shift=    0.000
 Gap=     0.088 Goal=   None    Shift=    0.000
 RMSDP=1.05D-08 MaxDP=4.99D-07 DE=-2.27D-12 OVMax= 1.15D-07

 Cycle  16  Pass 1  IDiag  1:
 E= -156.501242004077     Delta-E=       -0.000000000001 Rises=F Damp=F
 DIIS: error= 6.45D-09 at cycle  16 NSaved=  16.
 NSaved=16 IEnMin=16 EnMin= -156.501242004077     IErMin=16 ErrMin= 6.45D-09
 ErrMax= 6.45D-09  0.00D+00 EMaxC= 1.00D-01 BMatC= 2.36D-14 BMatP= 1.29D-13
 IDIUse=1 WtCom= 1.00D+00 WtEn= 0.00D+00
 Coeff-Com: -0.475D-07 0.971D-08-0.798D-07-0.628D-06-0.151D-05-0.164D-05
 Coeff-Com:  0.130D-04 0.265D-04 0.149D-03 0.885D-05-0.177D-02-0.174D-02
 Coeff-Com: -0.399D-02 0.265D-02 0.298D+00 0.706D+00
 Coeff:     -0.475D-07 0.971D-08-0.798D-07-0.628D-06-0.151D-05-0.164D-05
 Coeff:      0.130D-04 0.265D-04 0.149D-03 0.885D-05-0.177D-02-0.174D-02
 Coeff:     -0.399D-02 0.265D-02 0.298D+00 0.706D+00
 Gap=     0.088 Goal=   None    Shift=    0.000
 Gap=     0.088 Goal=   None    Shift=    0.000
 RMSDP=5.50D-09 MaxDP=2.46D-07 DE=-5.68D-13 OVMax= 5.68D-08

 SCF Done:  E(UB3LYP) =  -156.501242004     A.U. after   16 cycles
            NFock= 16  Conv=0.55D-08     -V/T= 2.0058
 <Sx>= 0.0000 <Sy>= 0.0000 <Sz>= 0.0000 <S**2>=-0.0000 S=-0.0000
 <L.S>= 0.000000000000E+00
 KE= 1.556010159131D+02 PE=-6.021184105602D+02 EE= 1.725547044684D+02
 Annihilation of the first spin contaminant:
 S**2 before annihilation    -0.0000,   after    -0.0000
 Leave Link  502 at Wed Jun 19 06:14:11 2019, MaxMem=  4294967296 cpu:             111.4 elap:              12.0
 (Enter /opt/gaussian/gdv-20170407-i10+/gdv/l601.exe)
 Copying SCF densities to generalized density rwf, IOpCl= 1 IROHF=0.

 **********************************************************************

            Population analysis using the SCF Density.

 **********************************************************************

 Orbital symmetries:
 Alpha Orbitals:
       Occupied  (A) (A) (A) (A) (A) (A) (A) (A) (A) (A) (A) (A)
                 (A) (A) (A) (A) (A)
       Virtual   (A) (A) (A) (A) (A) (A) (A) (A) (A) (A) (A) (A)
                 (A) (A) (A) (A) (A) (A) (A) (A) (A) (A) (A) (A)
                 (A) (A) (A) (A) (A) (A) (A) (A) (A) (A) (A) (A)
                 (A) (A) (A) (A) (A) (A) (A) (A) (A) (A) (A) (A)
                 (A) (A) (A) (A) (A) (A) (A) (A) (A) (A) (A) (A)
                 (A) (A) (A) (A) (A) (A) (A) (A) (A) (A) (A) (A)
                 (A) (A) (A) (A) (A) (A) (A) (A) (A) (A) (A) (A)
                 (A) (A) (A) (A) (A) (A) (A) (A) (A) (A) (A) (A)
                 (A) (A) (A) (A) (A) (A) (A) (A) (A) (A) (A) (A)
                 (A) (A) (A) (A) (A) (A) (A) (A) (A) (A) (A) (A)
                 (A) (A) (A) (A) (A) (A) (A) (A) (A) (A) (A) (A)
                 (A) (A) (A) (A) (A)
 Beta  Orbitals:
       Occupied  (A) (A) (A) (A) (A) (A) (A) (A) (A) (A) (A) (A)
                 (A) (A) (A) (A) (A)
       Virtual   (A) (A) (A) (A) (A) (A) (A) (A) (A) (A) (A) (A)
                 (A) (A) (A) (A) (A) (A) (A) (A) (A) (A) (A) (A)
                 (A) (A) (A) (A) (A) (A) (A) (A) (A) (A) (A) (A)
                 (A) (A) (A) (A) (A) (A) (A) (A) (A) (A) (A) (A)
                 (A) (A) (A) (A) (A) (A) (A) (A) (A) (A) (A) (A)
                 (A) (A) (A) (A) (A) (A) (A) (A) (A) (A) (A) (A)
                 (A) (A) (A) (A) (A) (A) (A) (A) (A) (A) (A) (A)
                 (A) (A) (A) (A) (A) (A) (A) (A) (A) (A) (A) (A)
                 (A) (A) (A) (A) (A) (A) (A) (A) (A) (A) (A) (A)
                 (A) (A) (A) (A) (A) (A) (A) (A) (A) (A) (A) (A)
                 (A) (A) (A) (A) (A) (A) (A) (A) (A) (A) (A) (A)
                 (A) (A) (A) (A) (A)
 The electronic state is 1-A.
 Alpha  occ. eigenvalues --   -6.56188  -6.56165  -6.56142  -6.56122  -6.53834
 Alpha  occ. eigenvalues --   -6.53830  -1.86287  -0.47842  -0.38103  -0.23981
 Alpha  occ. eigenvalues --   -0.23098  -0.12861  -0.12026  -0.09241  -0.07118
 Alpha  occ. eigenvalues --   -0.04540  -0.02750
 Alpha virt. eigenvalues --    0.06047   0.07031   0.07168   0.07275   0.07401
 Alpha virt. eigenvalues --    0.08260   0.08644   0.12685   0.12841   0.13092
 Alpha virt. eigenvalues --    0.14432   0.14611   0.15208   0.15309   0.15468
 Alpha virt. eigenvalues --    0.16131   0.17117   0.17643   0.17679   0.17912
 Alpha virt. eigenvalues --    0.18287   0.20041   0.20266   0.20987   0.21359
 Alpha virt. eigenvalues --    0.21587   0.22688   0.22933   0.23588   0.23598
 Alpha virt. eigenvalues --    0.24077   0.25599   0.26169   0.26567   0.26927
 Alpha virt. eigenvalues --    0.26966   0.28786   0.28790   0.29509   0.30390
 Alpha virt. eigenvalues --    0.30725   0.31969   0.32467   0.36886   0.41536
 Alpha virt. eigenvalues --    0.42947   0.43670   0.45971   0.47511   0.49661
 Alpha virt. eigenvalues --    0.53450   0.53740   0.53773   0.53931   0.54152
 Alpha virt. eigenvalues --    0.55646   0.56107   0.56977   0.57554   0.58653
 Alpha virt. eigenvalues --    0.59946   0.60112   0.61726   0.64584   0.65417
 Alpha virt. eigenvalues --    0.66429   0.67563   0.70435   0.72367   0.75443
 Alpha virt. eigenvalues --    0.78780   0.79081   0.79160   0.79927   0.82898
 Alpha virt. eigenvalues --    0.84271   0.85618   0.88373   0.89410   0.89626
 Alpha virt. eigenvalues --    0.90064   0.97188   0.98324   0.99782   1.13439
 Alpha virt. eigenvalues --    1.16334   1.18154   1.22133   1.26624   1.28262
 Alpha virt. eigenvalues --    1.31825   1.32779   1.34961   1.40745   1.43026
 Alpha virt. eigenvalues --    1.44137   1.47864   1.50488   1.51790   1.53689
 Alpha virt. eigenvalues --    1.57460   1.61518   1.64173   1.66491   1.76129
 Alpha virt. eigenvalues --    1.77310   1.79663   1.83094   1.83805   1.89058
 Alpha virt. eigenvalues --    2.04587   2.08188   2.10078   2.15145   2.15589
 Alpha virt. eigenvalues --    2.17258   2.20931   2.22776   2.26493   2.33250
 Alpha virt. eigenvalues --    2.34044   2.36641   2.41199   2.51363   2.52245
 Alpha virt. eigenvalues --    2.55685   2.61175   2.77334   2.98934   3.15449
 Alpha virt. eigenvalues --    4.05804  14.21327  14.59440  14.84019  15.22633
 Alpha virt. eigenvalues --   15.24691  15.52595
  Beta  occ. eigenvalues --   -6.56188  -6.56165  -6.56142  -6.56122  -6.53834
  Beta  occ. eigenvalues --   -6.53830  -1.86287  -0.47842  -0.38103  -0.23981
  Beta  occ. eigenvalues --   -0.23098  -0.12861  -0.12026  -0.09241  -0.07118
  Beta  occ. eigenvalues --   -0.04540  -0.02750
  Beta virt. eigenvalues --    0.06047   0.07031   0.07168   0.07275   0.07401
  Beta virt. eigenvalues --    0.08260   0.08644   0.12685   0.12841   0.13092
  Beta virt. eigenvalues --    0.14432   0.14611   0.15208   0.15309   0.15468
  Beta virt. eigenvalues --    0.16131   0.17117   0.17643   0.17679   0.17912
  Beta virt. eigenvalues --    0.18287   0.20041   0.20266   0.20987   0.21359
  Beta virt. eigenvalues --    0.21587   0.22688   0.22933   0.23588   0.23598
  Beta virt. eigenvalues --    0.24077   0.25599   0.26169   0.26567   0.26927
  Beta virt. eigenvalues --    0.26966   0.28786   0.28790   0.29509   0.30390
  Beta virt. eigenvalues --    0.30725   0.31969   0.32467   0.36886   0.41536
  Beta virt. eigenvalues --    0.42947   0.43670   0.45971   0.47511   0.49661
  Beta virt. eigenvalues --    0.53450   0.53740   0.53773   0.53931   0.54152
  Beta virt. eigenvalues --    0.55646   0.56107   0.56977   0.57554   0.58653
  Beta virt. eigenvalues --    0.59946   0.60112   0.61726   0.64584   0.65417
  Beta virt. eigenvalues --    0.66429   0.67563   0.70435   0.72367   0.75443
  Beta virt. eigenvalues --    0.78780   0.79081   0.79160   0.79927   0.82898
  Beta virt. eigenvalues --    0.84271   0.85618   0.88373   0.89410   0.89626
  Beta virt. eigenvalues --    0.90064   0.97188   0.98324   0.99782   1.13439
  Beta virt. eigenvalues --    1.16334   1.18154   1.22133   1.26624   1.28262
  Beta virt. eigenvalues --    1.31825   1.32779   1.34961   1.40745   1.43026
  Beta virt. eigenvalues --    1.44137   1.47864   1.50488   1.51790   1.53689
  Beta virt. eigenvalues --    1.57460   1.61518   1.64173   1.66491   1.76129
  Beta virt. eigenvalues --    1.77310   1.79663   1.83094   1.83805   1.89058
  Beta virt. eigenvalues --    2.04587   2.08188   2.10078   2.15145   2.15589
  Beta virt. eigenvalues --    2.17258   2.20931   2.22776   2.26493   2.33250
  Beta virt. eigenvalues --    2.34044   2.36641   2.41199   2.51363   2.52245
  Beta virt. eigenvalues --    2.55685   2.61175   2.77334   2.98934   3.15449
  Beta virt. eigenvalues --    4.05804  14.21327  14.59440  14.84019  15.22633
  Beta virt. eigenvalues --   15.24691  15.52595
          Condensed to atoms (all electrons):
               1          2          3          4          5          6
     1  B    4.693284   0.556943  -0.108274  -0.268092   0.556717  -0.108556
     2  B    0.556943   4.134106   0.144502  -0.107237   0.277392  -0.080739
     3  B   -0.108274   0.144502   4.133241   0.553954  -0.080504   0.280192
     4  B   -0.268092  -0.107237   0.553954   4.696733  -0.106841   0.553837
     5  B    0.556717   0.277392  -0.080504  -0.106841   4.133242   0.144466
     6  B   -0.108556  -0.080739   0.280192   0.553837   0.144466   4.134110
     7  Li   0.058243   0.124685   0.126959   0.056264   0.124542   0.127179
               7
     1  B    0.058243
     2  B    0.124685
     3  B    0.126959
     4  B    0.056264
     5  B    0.124542
     6  B    0.127179
     7  Li   2.424018
          Atomic-Atomic Spin Densities.
               1          2          3          4          5          6
     1  B   -0.000000  -0.000000   0.000000   0.000000  -0.000000   0.000000
     2  B   -0.000000   0.000000  -0.000000  -0.000000   0.000000   0.000000
     3  B    0.000000  -0.000000   0.000000   0.000000  -0.000000  -0.000000
     4  B    0.000000  -0.000000   0.000000   0.000000   0.000000  -0.000000
     5  B   -0.000000   0.000000  -0.000000   0.000000  -0.000000   0.000000
     6  B    0.000000   0.000000  -0.000000  -0.000000   0.000000  -0.000000
     7  Li  -0.000000   0.000000   0.000000   0.000000   0.000000  -0.000000
               7
     1  B   -0.000000
     2  B    0.000000
     3  B    0.000000
     4  B    0.000000
     5  B    0.000000
     6  B   -0.000000
     7  Li   0.000000
 Mulliken charges and spin densities:
               1          2
     1  B   -0.380266  -0.000000
     2  B   -0.049652  -0.000000
     3  B   -0.050070   0.000000
     4  B   -0.378618   0.000000
     5  B   -0.049014  -0.000000
     6  B   -0.050490  -0.000000
     7  Li  -0.041890   0.000000
 Sum of Mulliken charges =  -1.00000  -0.00000
 Mulliken charges and spin densities with hydrogens summed into heavy atoms:
               1          2
     1  B   -0.380266  -0.000000
     2  B   -0.049652  -0.000000
     3  B   -0.050070   0.000000
     4  B   -0.378618   0.000000
     5  B   -0.049014  -0.000000
     6  B   -0.050490  -0.000000
     7  Li  -0.041890   0.000000
 Electronic spatial extent (au):  <R**2>=            409.4619
 Charge=             -1.0000 electrons
 Dipole moment (field-independent basis, Debye):
    X=              0.0111    Y=             -0.0022    Z=              3.7975  Tot=              3.7975
 Quadrupole moment (field-independent basis, Debye-Ang):
   XX=            -77.0628   YY=            -51.1149   ZZ=            -37.5537
   XY=             -0.0039   XZ=              0.0287   YZ=             -0.0068
 Traceless Quadrupole moment (field-independent basis, Debye-Ang):
   XX=            -21.8190   YY=              4.1289   ZZ=             17.6901
   XY=             -0.0039   XZ=              0.0287   YZ=             -0.0068
 Octapole moment (field-independent basis, Debye-Ang**2):
  XXX=              0.0443  YYY=             -0.0028  ZZZ=             24.2164  XYY=              0.0127
  XXY=              0.0002  XXZ=             -1.9611  XZZ=              0.0577  YZZ=             -0.0123
  YYZ=              1.0483  XYZ=             -0.0018
 Hexadecapole moment (field-independent basis, Debye-Ang**3):
 XXXX=           -854.1209 YYYY=           -246.1437 ZZZZ=           -107.1596 XXXY=             -0.0335
 XXXZ=              0.0081 YYYX=             -0.0204 YYYZ=             -0.0144 ZZZX=              0.1876
 ZZZY=             -0.0324 XXYY=           -178.5920 XXZZ=           -154.4763 YYZZ=            -63.4593
 XXYZ=             -0.0063 YYXZ=              0.0311 ZZXY=             -0.0056
 N-N= 1.174614481745D+02 E-N=-6.021184103759D+02  KE= 1.556010159131D+02
                          Isotropic Fermi Contact Couplings
        Atom                 a.u.       MegaHertz       Gauss      10(-4) cm-1
     1  B(11)             -0.00000      -0.00000      -0.00000      -0.00000
     2  B(11)             -0.00000      -0.00000      -0.00000      -0.00000
     3  B(11)             -0.00000      -0.00000      -0.00000      -0.00000
     4  B(11)              0.00000       0.00000       0.00000       0.00000
     5  B(11)             -0.00000      -0.00000      -0.00000      -0.00000
     6  B(11)             -0.00000      -0.00000      -0.00000      -0.00000
     7  Li(7)              0.00000       0.00000       0.00000       0.00000
 --------------------------------------------------------
       Center         ----  Spin Dipole Couplings  ----
                      3XX-RR        3YY-RR        3ZZ-RR
 --------------------------------------------------------
     1   Atom       -0.000000      0.000000      0.000000
     2   Atom       -0.000000      0.000000     -0.000000
     3   Atom        0.000000     -0.000000      0.000000
     4   Atom        0.000000     -0.000000     -0.000000
     5   Atom       -0.000000      0.000000     -0.000000
     6   Atom        0.000000     -0.000000      0.000000
     7   Atom        0.000000     -0.000000     -0.000000
 --------------------------------------------------------
                        XY            XZ            YZ
 --------------------------------------------------------
     1   Atom        0.000000      0.000000     -0.000000
     2   Atom       -0.000000      0.000000      0.000000
     3   Atom       -0.000000      0.000000     -0.000000
     4   Atom        0.000000      0.000000      0.000000
     5   Atom        0.000000      0.000000     -0.000000
     6   Atom        0.000000      0.000000      0.000000
     7   Atom        0.000000     -0.000000     -0.000000
 --------------------------------------------------------


 ---------------------------------------------------------------------------------
              Anisotropic Spin Dipole Couplings in Principal Axis System
 ---------------------------------------------------------------------------------

       Atom             a.u.   MegaHertz   Gauss  10(-4) cm-1        Axes

              Baa    -0.0000    -0.000    -0.000    -0.000  0.9872 -0.0108 -0.1594
     1 B(11)  Bbb     0.0000     0.000     0.000     0.000  0.1208  0.7038  0.7001
              Bcc     0.0000     0.000     0.000     0.000 -0.1046  0.7104 -0.6960
 
              Baa    -0.0000    -0.000    -0.000    -0.000  0.8218  0.5182 -0.2369
     2 B(11)  Bbb    -0.0000    -0.000    -0.000    -0.000  0.2082  0.1140  0.9714
              Bcc     0.0000     0.000     0.000     0.000 -0.5304  0.8476  0.0142
 
              Baa    -0.0000    -0.000    -0.000    -0.000  0.5355  0.8444 -0.0131
     3 B(11)  Bbb     0.0000     0.000     0.000     0.000 -0.3394  0.2294  0.9122
              Bcc     0.0000     0.000     0.000     0.000  0.7733 -0.4840  0.4095
 
              Baa    -0.0000    -0.000    -0.000    -0.000 -0.1002 -0.6834  0.7231
     4 B(11)  Bbb    -0.0000    -0.000    -0.000    -0.000 -0.1052  0.7300  0.6753
              Bcc     0.0000     0.000     0.000     0.000  0.9894  0.0084  0.1450
 
              Baa    -0.0000    -0.000    -0.000    -0.000  0.7807 -0.5131 -0.3568
     5 B(11)  Bbb    -0.0000    -0.000    -0.000    -0.000  0.2856 -0.2150  0.9339
              Bcc     0.0000     0.000     0.000     0.000  0.5559  0.8310  0.0213
 
              Baa    -0.0000    -0.000    -0.000    -0.000 -0.5008  0.8653 -0.0205
     6 B(11)  Bbb     0.0000     0.000     0.000     0.000 -0.2032 -0.0946  0.9746
              Bcc     0.0000     0.000     0.000     0.000  0.8414  0.4922  0.2232
 
              Baa    -0.0000    -0.000    -0.000    -0.000  0.6401 -0.0071  0.7683
     7 Li(7)  Bbb    -0.0000    -0.000    -0.000    -0.000 -0.1141  0.9880  0.1042
              Bcc     0.0000     0.000     0.000     0.000  0.7598  0.1543 -0.6316
 

 ---------------------------------------------------------------------------------

 No NMR shielding tensors so no spin-rotation constants.
 Leave Link  601 at Wed Jun 19 06:14:12 2019, MaxMem=  4294967296 cpu:               3.0 elap:               0.3
 (Enter /opt/gaussian/gdv-20170407-i10+/gdv/l701.exe)
 ... and contract with generalized density number  0.
 Compute integral first derivatives.
 Leave Link  701 at Wed Jun 19 06:14:12 2019, MaxMem=  4294967296 cpu:               4.0 elap:               0.4
 (Enter /opt/gaussian/gdv-20170407-i10+/gdv/l702.exe)
 L702 exits ... SP integral derivatives will be done elsewhere.
 Leave Link  702 at Wed Jun 19 06:14:12 2019, MaxMem=  4294967296 cpu:               0.2 elap:               0.0
 (Enter /opt/gaussian/gdv-20170407-i10+/gdv/l703.exe)
 Integral derivatives from FoFJK, PRISM(SPDF).
 Compute integral first derivatives, UseDBF=F ICtDFT=           0.
 Calling FoFJK, ICntrl=      2127 FMM=F ISym2X=0 I1Cent= 0 IOpClX= 1 NMat=1 NMatS=1 NMatT=0.
 FoFJK:  IHMeth= 1 ICntrl=    2127 DoSepK=F KAlg= 0 I1Cent=           0 FoldK=F
 IRaf=         0 NMat=       1 IRICut=       1 DoRegI=T DoRafI=F ISym2E= 0 IDoP0=0 IntGTp=1.
 FoFCou: FMM=F IPFlag=           0 FMFlag=      100000 FMFlg1=         800
         NFxFlg=           0 DoJE=F BraDBF=F KetDBF=F FulRan=T
         wScrn=  0.000000 ICntrl=      2127 IOpCl=  1 I1Cent=           0 NGrid=           0
         NMat0=    1 NMatS0=      1 NMatT0=    0 NMatD0=    1 NMtDS0=    0 NMtDT0=    0
 Symmetry not used in FoFCou.
 Leave Link  703 at Wed Jun 19 06:14:14 2019, MaxMem=  4294967296 cpu:              20.9 elap:               1.8
 (Enter /opt/gaussian/gdv-20170407-i10+/gdv/l716.exe)
 Dipole        = 4.34994320D-03-8.63626470D-04 1.49403415D+00
 ***** Axes restored to original set *****
 -------------------------------------------------------------------
 Center     Atomic                   Forces (Hartrees/Bohr)
 Number     Number              X              Y              Z
 -------------------------------------------------------------------
      1        5           0.002660542   -0.000020251   -0.000622881
      2        5          -0.002401533   -0.000559132    0.000339165
      3        5           0.002446376   -0.000415638    0.000293941
      4        5          -0.002626412    0.000004686   -0.000680480
      5        5          -0.002457077    0.000552325    0.000268309
      6        5           0.002424640    0.000428810    0.000351406
      7        3          -0.000046536    0.000009199    0.000050541
 -------------------------------------------------------------------
 Cartesian Forces:  Max     0.002660542 RMS     0.001377925
 Leave Link  716 at Wed Jun 19 06:14:14 2019, MaxMem=  4294967296 cpu:               0.3 elap:               0.0
 (Enter /opt/gaussian/gdv-20170407-i10+/gdv/l103.exe)

 GradGradGradGradGradGradGradGradGradGradGradGradGradGradGradGradGradGrad
 Berny optimization.
 FormGI is forming the generalized inverse of G from B-inverse, IUseBI=4.
 Internal  Forces:  Max     0.003254305 RMS     0.000921360
 Search for a local minimum.
 Step number   1 out of a maximum of   55
 All quantities printed in internal units (Hartrees-Bohrs-Radians)
 RMS Force = .92136D-03 SwitMx=.10000D-02 MixMth= 2
 Mixed Optimization -- En-DIIS/RFO-DIIS
 Second derivative matrix not updated -- first step.
 ITU=  0
     Eigenvalues ---    0.00925   0.01102   0.01923   0.02319   0.03500
     Eigenvalues ---    0.03701   0.04966   0.06451   0.08641   0.09400
     Eigenvalues ---    0.13826   0.14667   0.19824   0.19944   0.28265
 RFO step:  Lambda=-4.91256570D-04 EMin= 9.24875701D-03
 Linear search not attempted -- first point.
 Iteration  1 RMS(Cart)=  0.01745541 RMS(Int)=  0.00018511
 Iteration  2 RMS(Cart)=  0.00011141 RMS(Int)=  0.00008707
 Iteration  3 RMS(Cart)=  0.00000003 RMS(Int)=  0.00008707
 ITry= 1 IFail=0 DXMaxC= 7.02D-02 DCOld= 1.00D+10 DXMaxT= 3.00D-01 DXLimC= 3.00D+00 Rises=F
 Variable       Old X    -DE/DX   Delta X   Delta X   Delta X     New X
                                 (Linear)    (Quad)   (Total)
    R1        2.87597  -0.00325   0.00000  -0.00874  -0.00873   2.86724
    R2        5.67844   0.00101   0.00000   0.02331   0.02331   5.70175
    R3        5.67860  -0.00126   0.00000  -0.07376  -0.07377   5.60483
    R4        4.28174   0.00021   0.00000   0.01119   0.01115   4.29289
    R5        3.37175  -0.00057   0.00000  -0.00494  -0.00493   3.36681
    R6        4.27606   0.00038   0.00000   0.00069   0.00071   4.27678
    R7        5.67782  -0.00131   0.00000  -0.06430  -0.06428   5.61354
    R8        3.13445   0.00286   0.00000   0.01832   0.01835   3.15280
    R9        4.28019  -0.00008   0.00000  -0.00153  -0.00144   4.27875
   R10        4.27626   0.00003   0.00000  -0.00350  -0.00362   4.27264
    A1        0.34918   0.00121   0.00000   0.01109   0.01114   0.36031
    A2        2.15381  -0.00124   0.00000  -0.00883  -0.00892   2.14489
    A3        1.45961  -0.00044   0.00000   0.00362   0.00373   1.46335
    A4        0.98556  -0.00033   0.00000   0.00564   0.00582   0.99138
    A5        1.26961  -0.00096   0.00000  -0.01387  -0.01382   1.25578
    A6        0.98971  -0.00080   0.00000  -0.00053  -0.00048   0.98924
    A7        0.60305  -0.00010   0.00000   0.00338   0.00336   0.60642
    A8        0.31961   0.00011   0.00000   0.00621   0.00649   0.32611
    A9        0.98577  -0.00030   0.00000   0.00482   0.00505   0.99082
   A10        1.57061   0.00064   0.00000   0.00306   0.00307   1.57368
   A11        0.74999   0.00137   0.00000   0.01115   0.01119   0.76118
   A12        0.80976  -0.00035   0.00000  -0.00673  -0.00681   0.80295
   A13        1.13626   0.00036   0.00000   0.00150   0.00152   1.13778
   A14        1.13611   0.00079   0.00000   0.00453   0.00454   1.14065
    D1       -0.00137   0.00035   0.00000   0.00912   0.00930   0.00793
    D2       -0.73992   0.00022   0.00000  -0.01115  -0.01102  -0.75093
    D3       -2.79666   0.00040   0.00000  -0.01327  -0.01337  -2.81003
    D4        2.20978  -0.00027   0.00000  -0.02076  -0.02076   2.18902
    D5        0.34577  -0.00029   0.00000  -0.02689  -0.02690   0.31888
    D6        1.27747   0.00013   0.00000  -0.00142  -0.00141   1.27606
    D7        2.67551  -0.00086   0.00000  -0.01743  -0.01751   2.65800
    D8        0.93472  -0.00118   0.00000  -0.02148  -0.02147   0.91324
    D9        1.76885  -0.00056   0.00000  -0.01728  -0.01730   1.75155
   D10        0.27381   0.00022   0.00000   0.00479   0.00476   0.27857
   D11       -1.46699  -0.00011   0.00000   0.00074   0.00080  -1.46619
   D12       -0.63285   0.00051   0.00000   0.00495   0.00497  -0.62788
   D13        0.10599  -0.00013   0.00000  -0.00718  -0.00712   0.09886
   D14       -0.27403  -0.00024   0.00000  -0.00794  -0.00789  -0.28192
   D15        0.63167  -0.00120   0.00000  -0.01969  -0.01962   0.61205
   D16        2.79226   0.00022   0.00000   0.04325   0.04320   2.83547
   D17       -1.27820  -0.00030   0.00000  -0.01025  -0.01021  -1.28841
   D18       -0.33263   0.00047   0.00000   0.04572   0.04559  -0.28705
   D19       -1.13350   0.00014   0.00000  -0.00009  -0.00013  -1.13363
   D20        1.46694   0.00003   0.00000  -0.01146  -0.01149   1.45544
   D21        0.63284  -0.00112   0.00000  -0.02157  -0.02162   0.61122
         Item               Value     Threshold  Converged?
 Maximum Force            0.003254     0.000450     NO 
 RMS     Force            0.000921     0.000300     NO 
 Maximum Displacement     0.070163     0.001800     NO 
 RMS     Displacement     0.017512     0.001200     NO 
 Predicted change in Energy=-2.488165D-04
 Lowest energy point so far.  Saving SCF results.
 GradGradGradGradGradGradGradGradGradGradGradGradGradGradGradGradGradGrad

 Leave Link  103 at Wed Jun 19 06:14:14 2019, MaxMem=  4294967296 cpu:               0.2 elap:               0.0
 (Enter /opt/gaussian/gdv-20170407-i10+/gdv/l202.exe)
                          Input orientation:                          
 ---------------------------------------------------------------------
 Center     Atomic      Atomic             Coordinates (Angstroms)
 Number     Number       Type             X           Y           Z
 ---------------------------------------------------------------------
      1          5           0       -2.012251   -0.014058    0.024386
      2          5           0       -0.830694    0.893329   -0.263203
      3          5           0        0.853847    0.887147   -0.253160
      4          5           0        1.986036    0.007311    0.015808
      5          5           0       -0.835790   -0.879204   -0.259142
      6          5           0        0.832527   -0.894362   -0.257048
      7          3           0        0.008413   -0.000555    1.649253
 ---------------------------------------------------------------------
                    Distance matrix (angstroms):
                    1          2          3          4          5
     1  B    0.000000
     2  B    1.517279   0.000000
     3  B    3.017237   1.684582   0.000000
     4  B    3.998354   2.965948   1.458872   0.000000
     5  B    1.487590   1.772546   2.444363   2.970558   0.000000
     6  B    2.991137   2.441758   1.781641   1.489311   1.668388
     7  Li   2.592963   2.271699   2.263172   2.564994   2.264216
                    6          7
     6  B    0.000000
     7  Li   2.260982   0.000000
 Stoichiometry    B6Li(1-)
 Framework group  C1[X(B6Li)]
 Deg. of freedom    15
 Full point group                 C1      NOp   1
 RotChk:  IX=0 Diff= 9.50D-03
 Largest Abelian subgroup         C1      NOp   1
 Largest concise Abelian subgroup C1      NOp   1
                         Standard orientation:                         
 ---------------------------------------------------------------------
 Center     Atomic      Atomic             Coordinates (Angstroms)
 Number     Number       Type             X           Y           Z
 ---------------------------------------------------------------------
      1          5           0       -2.012118   -0.001332    0.023837
      2          5           0       -0.824695    0.899170   -0.261223
      3          5           0        0.859768    0.882289   -0.250404
      4          5           0        1.986228   -0.005289    0.017181
      5          5           0       -0.841027   -0.873300   -0.261020
      6          5           0        0.827160   -0.899037   -0.258177
      7          3           0        0.007807   -0.004168    1.649677
 ---------------------------------------------------------------------
 Rotational constants (GHZ):           8.8993039           3.5849232           3.2877135
 Leave Link  202 at Wed Jun 19 06:14:14 2019, MaxMem=  4294967296 cpu:               0.1 elap:               0.0
 (Enter /opt/gaussian/gdv-20170407-i10+/gdv/l301.exe)
 Standard basis: 6-311+G(d) (5D, 7F)
 Ernie: Thresh=  0.10000D-02 Tol=  0.10000D-05 Strict=F.
 There are   161 symmetry adapted cartesian basis functions of A   symmetry.
 There are   154 symmetry adapted basis functions of A   symmetry.
   154 basis functions,   252 primitive gaussians,   161 cartesian basis functions
    17 alpha electrons       17 beta electrons
       nuclear repulsion energy       118.2692985216 Hartrees.
 IExCor=  402 DFT=T Ex+Corr=B3LYP ExCW=0 ScaHFX=  0.200000
 ScaDFX=  0.800000  0.720000  1.000000  0.810000 ScalE2=  1.000000  1.000000
 IRadAn=      5 IRanWt=     -1 IRanGd=            0 ICorTp=0 IEmpDi=  4
 NAtoms=    7 NActive=    7 NUniq=    7 SFac= 1.00D+00 NAtFMM=   60 NAOKFM=F Big=F
 Integral buffers will be    131072 words long.
 Raffenetti 2 integral format.
 Two-electron integral symmetry is turned on.
 Leave Link  301 at Wed Jun 19 06:14:14 2019, MaxMem=  4294967296 cpu:               0.6 elap:               0.1
 (Enter /opt/gaussian/gdv-20170407-i10+/gdv/l302.exe)
 NPDir=0 NMtPBC=     1 NCelOv=     1 NCel=       1 NClECP=     1 NCelD=      1
         NCelK=      1 NCelE2=     1 NClLst=     1 CellRange=     0.0.
 One-electron integrals computed using PRISM.
 One-electron integral symmetry used in STVInt
 NBasis=   154 RedAO= T EigKep=  5.65D-06  NBF=   154
 NBsUse=   154 1.00D-06 EigRej= -1.00D+00 NBFU=   154
 Precomputing XC quadrature grid using
 IXCGrd= 4 IRadAn=           5 IRanWt=          -1 IRanGd=           0 AccXCQ= 1.00D-12.
 Generated NRdTot=       0 NPtTot=           0 NUsed=           0 NTot=          32
 NSgBfM=   161   161   161   161   161 MxSgAt=     7 MxSgA2=     7.
 Leave Link  302 at Wed Jun 19 06:14:14 2019, MaxMem=  4294967296 cpu:               1.9 elap:               0.2
 (Enter /opt/gaussian/gdv-20170407-i10+/gdv/l303.exe)
 DipDrv:  MaxL=1.
 Leave Link  303 at Wed Jun 19 06:14:14 2019, MaxMem=  4294967296 cpu:               0.3 elap:               0.0
 (Enter /opt/gaussian/gdv-20170407-i10+/gdv/l401.exe)
 Initial guess from the checkpoint file:  "1-1-oso.chk"
 B after Tr=    -0.000000    0.000000    0.000000
         Rot=    0.999994   -0.001114    0.000319    0.003169 Ang=  -0.39 deg.
 Guess basis will be translated and rotated to current coordinates.
 JPrj=2 DoOrth=T DoCkMO=T.
 Initial guess <Sx>= 0.0000 <Sy>= 0.0000 <Sz>= 0.0000 <S**2>=-0.0000 S=-0.0000
 Generating alternative initial guess.
 ExpMin= 7.40D-03 ExpMax= 2.86D+03 ExpMxC= 4.28D+02 IAcc=3 IRadAn=         5 AccDes= 0.00D+00
 Harris functional with IExCor=  402 and IRadAn=       5 diagonalized for initial guess.
 HarFok:  IExCor=  402 AccDes= 0.00D+00 IRadAn=         5 IDoV= 1 UseB2=F ITyADJ=14
 ICtDFT=  3500011 ScaDFX=  1.000000  1.000000  1.000000  1.000000
 FoFCou: FMM=F IPFlag=           0 FMFlag=      100000 FMFlg1=           0
         NFxFlg=           0 DoJE=T BraDBF=F KetDBF=T FulRan=T
         wScrn=  0.000000 ICntrl=       500 IOpCl=  0 I1Cent=   200000004 NGrid=           0
         NMat0=    1 NMatS0=      1 NMatT0=    0 NMatD0=    1 NMtDS0=    0 NMtDT0=    0
 Petite list used in FoFCou.
 Harris En= -156.809578247631    
 Leave Link  401 at Wed Jun 19 06:14:15 2019, MaxMem=  4294967296 cpu:               6.3 elap:               0.5
 (Enter /opt/gaussian/gdv-20170407-i10+/gdv/l502.exe)
 Keep R1 and R2 ints in memory in canonical form, NReq=154304981.
 FoFCou: FMM=F IPFlag=           0 FMFlag=           0 FMFlg1=           0
         NFxFlg=           0 DoJE=F BraDBF=F KetDBF=F FulRan=T
         wScrn=  0.000000 ICntrl=       600 IOpCl=  0 I1Cent=           0 NGrid=           0
         NMat0=    1 NMatS0=  11935 NMatT0=    0 NMatD0=    1 NMtDS0=    0 NMtDT0=    0
 Symmetry not used in FoFCou.
 Two-electron integral symmetry not used.
 UHF open shell SCF:
 Using DIIS extrapolation, IDIIS=  1040.
 NGot=  4294967296 LenX=  4152455811 LenY=  4152429449
 Requested convergence on RMS density matrix=1.00D-08 within 512 cycles.
 Requested convergence on MAX density matrix=1.00D-06.
 Requested convergence on             energy=1.00D-06.
 No special actions if energy rises.

 Cycle   1  Pass 1  IDiag  1:
 E= -156.496572736961    
 DIIS: error= 2.80D-03 at cycle   1 NSaved=   1.
 NSaved= 1 IEnMin= 1 EnMin= -156.496572736961     IErMin= 1 ErrMin= 2.80D-03
 ErrMax= 2.80D-03  0.00D+00 EMaxC= 1.00D-01 BMatC= 5.72D-03 BMatP= 5.72D-03
 IDIUse=3 WtCom= 9.72D-01 WtEn= 2.80D-02
 Coeff-Com:  0.100D+01
 Coeff-En:   0.100D+01
 Coeff:      0.100D+01
 Gap=     0.325 Goal=   None    Shift=    0.000
 Gap=     0.325 Goal=   None    Shift=    0.000
 GapD=    0.325 DampG=1.000 DampE=1.000 DampFc=1.0000 IDamp=-1.
 RMSDP=2.59D-03 MaxDP=1.40D-01              OVMax= 2.38D-02

 Cycle   2  Pass 1  IDiag  1:
 E= -156.497568776782     Delta-E=       -0.000996039821 Rises=F Damp=F
 DIIS: error= 2.91D-03 at cycle   2 NSaved=   2.
 NSaved= 2 IEnMin= 2 EnMin= -156.497568776782     IErMin= 1 ErrMin= 2.80D-03
 ErrMax= 2.91D-03  0.00D+00 EMaxC= 1.00D-01 BMatC= 1.99D-03 BMatP= 5.72D-03
 IDIUse=3 WtCom= 9.71D-01 WtEn= 2.91D-02
 Coeff-Com:  0.318D+00 0.682D+00
 Coeff-En:   0.596D-01 0.940D+00
 Coeff:      0.310D+00 0.690D+00
 Gap=     0.087 Goal=   None    Shift=    0.000
 Gap=     0.087 Goal=   None    Shift=    0.000
 RMSDP=5.90D-04 MaxDP=1.31D-02 DE=-9.96D-04 OVMax= 2.13D-02

 Cycle   3  Pass 1  IDiag  1:
 E= -156.497651569478     Delta-E=       -0.000082792696 Rises=F Damp=F
 DIIS: error= 2.74D-03 at cycle   3 NSaved=   3.
 NSaved= 3 IEnMin= 3 EnMin= -156.497651569478     IErMin= 3 ErrMin= 2.74D-03
 ErrMax= 2.74D-03  0.00D+00 EMaxC= 1.00D-01 BMatC= 1.50D-03 BMatP= 1.99D-03
 IDIUse=3 WtCom= 9.73D-01 WtEn= 2.74D-02
 Coeff-Com:  0.494D-01 0.456D+00 0.495D+00
 Coeff-En:   0.000D+00 0.473D+00 0.527D+00
 Coeff:      0.480D-01 0.456D+00 0.496D+00
 Gap=     0.088 Goal=   None    Shift=    0.000
 Gap=     0.088 Goal=   None    Shift=    0.000
 RMSDP=4.04D-04 MaxDP=1.12D-02 DE=-8.28D-05 OVMax= 2.37D-02

 Cycle   4  Pass 1  IDiag  1:
 E= -156.497946659564     Delta-E=       -0.000295090086 Rises=F Damp=F
 DIIS: error= 2.32D-03 at cycle   4 NSaved=   4.
 NSaved= 4 IEnMin= 4 EnMin= -156.497946659564     IErMin= 4 ErrMin= 2.32D-03
 ErrMax= 2.32D-03  0.00D+00 EMaxC= 1.00D-01 BMatC= 7.15D-04 BMatP= 1.50D-03
 IDIUse=3 WtCom= 9.77D-01 WtEn= 2.32D-02
 EnCoef did     6 forward-backward iterations
 Coeff-Com:  0.296D-02 0.262D+00 0.409D+00 0.325D+00
 Coeff-En:   0.000D+00 0.462D-01 0.369D+00 0.584D+00
 Coeff:      0.289D-02 0.257D+00 0.408D+00 0.331D+00
 Gap=     0.089 Goal=   None    Shift=    0.000
 Gap=     0.089 Goal=   None    Shift=    0.000
 RMSDP=1.99D-04 MaxDP=5.53D-03 DE=-2.95D-04 OVMax= 1.30D-02

 Cycle   5  Pass 1  IDiag  1:
 E= -156.498254029686     Delta-E=       -0.000307370122 Rises=F Damp=F
 DIIS: error= 2.36D-04 at cycle   5 NSaved=   5.
 NSaved= 5 IEnMin= 5 EnMin= -156.498254029686     IErMin= 5 ErrMin= 2.36D-04
 ErrMax= 2.36D-04  0.00D+00 EMaxC= 1.00D-01 BMatC= 2.51D-05 BMatP= 7.15D-04
 IDIUse=3 WtCom= 9.98D-01 WtEn= 2.36D-03
 Coeff-Com: -0.336D-02 0.941D-01 0.194D+00 0.201D+00 0.515D+00
 Coeff-En:   0.000D+00 0.000D+00 0.000D+00 0.000D+00 0.100D+01
 Coeff:     -0.335D-02 0.938D-01 0.193D+00 0.200D+00 0.516D+00
 Gap=     0.089 Goal=   None    Shift=    0.000
 Gap=     0.089 Goal=   None    Shift=    0.000
 RMSDP=6.07D-05 MaxDP=2.48D-03 DE=-3.07D-04 OVMax= 1.95D-03

 Cycle   6  Pass 1  IDiag  1:
 E= -156.498261386160     Delta-E=       -0.000007356474 Rises=F Damp=F
 DIIS: error= 1.84D-04 at cycle   6 NSaved=   6.
 NSaved= 6 IEnMin= 6 EnMin= -156.498261386160     IErMin= 6 ErrMin= 1.84D-04
 ErrMax= 1.84D-04  0.00D+00 EMaxC= 1.00D-01 BMatC= 6.10D-06 BMatP= 2.51D-05
 IDIUse=3 WtCom= 9.98D-01 WtEn= 1.84D-03
 Coeff-Com: -0.257D-02 0.225D-01 0.729D-01 0.925D-01 0.366D+00 0.448D+00
 Coeff-En:   0.000D+00 0.000D+00 0.000D+00 0.000D+00 0.192D+00 0.808D+00
 Coeff:     -0.256D-02 0.224D-01 0.728D-01 0.923D-01 0.366D+00 0.449D+00
 Gap=     0.089 Goal=   None    Shift=    0.000
 Gap=     0.089 Goal=   None    Shift=    0.000
 RMSDP=1.82D-05 MaxDP=3.80D-04 DE=-7.36D-06 OVMax= 5.83D-04

 Cycle   7  Pass 1  IDiag  1:
 E= -156.498263577146     Delta-E=       -0.000002190986 Rises=F Damp=F
 DIIS: error= 2.17D-05 at cycle   7 NSaved=   7.
 NSaved= 7 IEnMin= 7 EnMin= -156.498263577146     IErMin= 7 ErrMin= 2.17D-05
 ErrMax= 2.17D-05  0.00D+00 EMaxC= 1.00D-01 BMatC= 2.14D-07 BMatP= 6.10D-06
 IDIUse=1 WtCom= 1.00D+00 WtEn= 0.00D+00
 Coeff-Com: -0.695D-03-0.981D-03 0.126D-01 0.265D-01 0.113D+00 0.195D+00
 Coeff-Com:  0.654D+00
 Coeff:     -0.695D-03-0.981D-03 0.126D-01 0.265D-01 0.113D+00 0.195D+00
 Coeff:      0.654D+00
 Gap=     0.089 Goal=   None    Shift=    0.000
 Gap=     0.089 Goal=   None    Shift=    0.000
 RMSDP=6.71D-06 MaxDP=1.90D-04 DE=-2.19D-06 OVMax= 2.06D-04

 Cycle   8  Pass 1  IDiag  1:
 E= -156.498263649004     Delta-E=       -0.000000071858 Rises=F Damp=F
 DIIS: error= 1.46D-05 at cycle   8 NSaved=   8.
 NSaved= 8 IEnMin= 8 EnMin= -156.498263649004     IErMin= 8 ErrMin= 1.46D-05
 ErrMax= 1.46D-05  0.00D+00 EMaxC= 1.00D-01 BMatC= 6.75D-08 BMatP= 2.14D-07
 IDIUse=1 WtCom= 1.00D+00 WtEn= 0.00D+00
 Coeff-Com:  0.126D-04-0.586D-02-0.727D-02-0.259D-03-0.260D-02 0.338D-01
 Coeff-Com:  0.417D+00 0.565D+00
 Coeff:      0.126D-04-0.586D-02-0.727D-02-0.259D-03-0.260D-02 0.338D-01
 Coeff:      0.417D+00 0.565D+00
 Gap=     0.089 Goal=   None    Shift=    0.000
 Gap=     0.089 Goal=   None    Shift=    0.000
 RMSDP=3.65D-06 MaxDP=8.28D-05 DE=-7.19D-08 OVMax= 6.45D-05

 Cycle   9  Pass 1  IDiag  1:
 E= -156.498263675139     Delta-E=       -0.000000026135 Rises=F Damp=F
 DIIS: error= 1.82D-06 at cycle   9 NSaved=   9.
 NSaved= 9 IEnMin= 9 EnMin= -156.498263675139     IErMin= 9 ErrMin= 1.82D-06
 ErrMax= 1.82D-06  0.00D+00 EMaxC= 1.00D-01 BMatC= 1.18D-09 BMatP= 6.75D-08
 IDIUse=1 WtCom= 1.00D+00 WtEn= 0.00D+00
 Coeff-Com:  0.568D-04-0.159D-02-0.304D-02-0.200D-02-0.110D-01-0.512D-02
 Coeff-Com:  0.677D-01 0.107D+00 0.848D+00
 Coeff:      0.568D-04-0.159D-02-0.304D-02-0.200D-02-0.110D-01-0.512D-02
 Coeff:      0.677D-01 0.107D+00 0.848D+00
 Gap=     0.089 Goal=   None    Shift=    0.000
 Gap=     0.089 Goal=   None    Shift=    0.000
 RMSDP=1.32D-06 MaxDP=3.53D-05 DE=-2.61D-08 OVMax= 2.27D-05

 Cycle  10  Pass 1  IDiag  1:
 E= -156.498263675361     Delta-E=       -0.000000000222 Rises=F Damp=F
 DIIS: error= 2.93D-06 at cycle  10 NSaved=  10.
 NSaved=10 IEnMin=10 EnMin= -156.498263675361     IErMin= 9 ErrMin= 1.82D-06
 ErrMax= 2.93D-06  0.00D+00 EMaxC= 1.00D-01 BMatC= 1.70D-09 BMatP= 1.18D-09
 IDIUse=1 WtCom= 1.00D+00 WtEn= 0.00D+00
 Coeff-Com:  0.354D-04-0.190D-03-0.869D-03-0.115D-02-0.678D-02-0.740D-02
 Coeff-Com: -0.121D-01-0.173D-01 0.640D+00 0.406D+00
 Coeff:      0.354D-04-0.190D-03-0.869D-03-0.115D-02-0.678D-02-0.740D-02
 Coeff:     -0.121D-01-0.173D-01 0.640D+00 0.406D+00
 Gap=     0.089 Goal=   None    Shift=    0.000
 Gap=     0.089 Goal=   None    Shift=    0.000
 RMSDP=5.40D-07 MaxDP=1.30D-05 DE=-2.22D-10 OVMax= 1.08D-05

 Cycle  11  Pass 1  IDiag  1:
 E= -156.498263676015     Delta-E=       -0.000000000654 Rises=F Damp=F
 DIIS: error= 2.78D-07 at cycle  11 NSaved=  11.
 NSaved=11 IEnMin=11 EnMin= -156.498263676015     IErMin=11 ErrMin= 2.78D-07
 ErrMax= 2.78D-07  0.00D+00 EMaxC= 1.00D-01 BMatC= 3.51D-11 BMatP= 1.18D-09
 IDIUse=1 WtCom= 1.00D+00 WtEn= 0.00D+00
 Coeff-Com:  0.493D-05 0.147D-03 0.991D-04-0.176D-03-0.119D-02-0.193D-02
 Coeff-Com: -0.109D-01-0.245D-01 0.116D+00 0.140D+00 0.783D+00
 Coeff:      0.493D-05 0.147D-03 0.991D-04-0.176D-03-0.119D-02-0.193D-02
 Coeff:     -0.109D-01-0.245D-01 0.116D+00 0.140D+00 0.783D+00
 Gap=     0.089 Goal=   None    Shift=    0.000
 Gap=     0.089 Goal=   None    Shift=    0.000
 RMSDP=2.00D-07 MaxDP=1.15D-05 DE=-6.54D-10 OVMax= 3.67D-06

 Cycle  12  Pass 1  IDiag  1:
 E= -156.498263676032     Delta-E=       -0.000000000018 Rises=F Damp=F
 DIIS: error= 1.14D-07 at cycle  12 NSaved=  12.
 NSaved=12 IEnMin=12 EnMin= -156.498263676032     IErMin=12 ErrMin= 1.14D-07
 ErrMax= 1.14D-07  0.00D+00 EMaxC= 1.00D-01 BMatC= 7.79D-12 BMatP= 3.51D-11
 IDIUse=1 WtCom= 1.00D+00 WtEn= 0.00D+00
 Coeff-Com: -0.220D-05 0.110D-03 0.174D-03 0.503D-04 0.176D-03-0.405D-04
 Coeff-Com: -0.406D-02-0.126D-01-0.180D-01 0.218D-01 0.403D+00 0.610D+00
 Coeff:     -0.220D-05 0.110D-03 0.174D-03 0.503D-04 0.176D-03-0.405D-04
 Coeff:     -0.406D-02-0.126D-01-0.180D-01 0.218D-01 0.403D+00 0.610D+00
 Gap=     0.089 Goal=   None    Shift=    0.000
 Gap=     0.089 Goal=   None    Shift=    0.000
 RMSDP=6.47D-08 MaxDP=3.85D-06 DE=-1.77D-11 OVMax= 1.41D-06

 Cycle  13  Pass 1  IDiag  1:
 E= -156.498263676036     Delta-E=       -0.000000000004 Rises=F Damp=F
 DIIS: error= 2.74D-08 at cycle  13 NSaved=  13.
 NSaved=13 IEnMin=13 EnMin= -156.498263676036     IErMin=13 ErrMin= 2.74D-08
 ErrMax= 2.74D-08  0.00D+00 EMaxC= 1.00D-01 BMatC= 4.68D-13 BMatP= 7.79D-12
 IDIUse=1 WtCom= 1.00D+00 WtEn= 0.00D+00
 Coeff-Com: -0.114D-05 0.812D-05 0.317D-04 0.294D-04 0.171D-03 0.298D-03
 Coeff-Com:  0.622D-03-0.999D-03-0.199D-01-0.131D-01 0.142D-01 0.177D+00
 Coeff-Com:  0.841D+00
 Coeff:     -0.114D-05 0.812D-05 0.317D-04 0.294D-04 0.171D-03 0.298D-03
 Coeff:      0.622D-03-0.999D-03-0.199D-01-0.131D-01 0.142D-01 0.177D+00
 Coeff:      0.841D+00
 Gap=     0.089 Goal=   None    Shift=    0.000
 Gap=     0.089 Goal=   None    Shift=    0.000
 RMSDP=2.35D-08 MaxDP=1.27D-06 DE=-3.52D-12 OVMax= 6.25D-07

 Cycle  14  Pass 1  IDiag  1:
 E= -156.498263676037     Delta-E=       -0.000000000001 Rises=F Damp=F
 DIIS: error= 6.11D-09 at cycle  14 NSaved=  14.
 NSaved=14 IEnMin=14 EnMin= -156.498263676037     IErMin=14 ErrMin= 6.11D-09
 ErrMax= 6.11D-09  0.00D+00 EMaxC= 1.00D-01 BMatC= 1.85D-14 BMatP= 4.68D-13
 IDIUse=1 WtCom= 1.00D+00 WtEn= 0.00D+00
 Coeff-Com: -0.134D-06-0.505D-05-0.251D-05 0.340D-05 0.246D-04 0.743D-04
 Coeff-Com:  0.403D-03 0.370D-03-0.318D-02-0.426D-02-0.202D-01 0.533D-02
 Coeff-Com:  0.180D+00 0.842D+00
 Coeff:     -0.134D-06-0.505D-05-0.251D-05 0.340D-05 0.246D-04 0.743D-04
 Coeff:      0.403D-03 0.370D-03-0.318D-02-0.426D-02-0.202D-01 0.533D-02
 Coeff:      0.180D+00 0.842D+00
 Gap=     0.089 Goal=   None    Shift=    0.000
 Gap=     0.089 Goal=   None    Shift=    0.000
 RMSDP=7.02D-09 MaxDP=3.26D-07 DE=-6.82D-13 OVMax= 1.73D-07

 SCF Done:  E(UB3LYP) =  -156.498263676     A.U. after   14 cycles
            NFock= 14  Conv=0.70D-08     -V/T= 2.0047
 <Sx>= 0.0000 <Sy>= 0.0000 <Sz>= 0.0000 <S**2>=-0.0000 S=-0.0000
 <L.S>= 0.000000000000E+00
 KE= 1.557621716459D+02 PE=-6.039430705209D+02 EE= 1.734133366773D+02
 Annihilation of the first spin contaminant:
 S**2 before annihilation    -0.0000,   after     0.0000
 Leave Link  502 at Wed Jun 19 06:14:26 2019, MaxMem=  4294967296 cpu:              98.5 elap:              10.7
 (Enter /opt/gaussian/gdv-20170407-i10+/gdv/l701.exe)
 ... and contract with generalized density number  0.
 Compute integral first derivatives.
 Leave Link  701 at Wed Jun 19 06:14:26 2019, MaxMem=  4294967296 cpu:               4.0 elap:               0.4
 (Enter /opt/gaussian/gdv-20170407-i10+/gdv/l702.exe)
 L702 exits ... SP integral derivatives will be done elsewhere.
 Leave Link  702 at Wed Jun 19 06:14:26 2019, MaxMem=  4294967296 cpu:               0.2 elap:               0.0
 (Enter /opt/gaussian/gdv-20170407-i10+/gdv/l703.exe)
 Integral derivatives from FoFJK, PRISM(SPDF).
 Compute integral first derivatives, UseDBF=F ICtDFT=           0.
 Calling FoFJK, ICntrl=      2127 FMM=F ISym2X=0 I1Cent= 0 IOpClX= 1 NMat=1 NMatS=1 NMatT=0.
 FoFJK:  IHMeth= 1 ICntrl=    2127 DoSepK=F KAlg= 0 I1Cent=           0 FoldK=F
 IRaf=         0 NMat=       1 IRICut=       1 DoRegI=T DoRafI=F ISym2E= 0 IDoP0=0 IntGTp=1.
 FoFCou: FMM=F IPFlag=           0 FMFlag=      100000 FMFlg1=         800
         NFxFlg=           0 DoJE=F BraDBF=F KetDBF=F FulRan=T
         wScrn=  0.000000 ICntrl=      2127 IOpCl=  1 I1Cent=           0 NGrid=           0
         NMat0=    1 NMatS0=      1 NMatT0=    0 NMatD0=    1 NMtDS0=    0 NMtDT0=    0
 Symmetry not used in FoFCou.
 Leave Link  703 at Wed Jun 19 06:14:28 2019, MaxMem=  4294967296 cpu:              20.8 elap:               1.8
 (Enter /opt/gaussian/gdv-20170407-i10+/gdv/l716.exe)
 Dipole        = 8.80858122D-02-3.33103956D-03 1.53344785D+00
 ***** Axes restored to original set *****
 -------------------------------------------------------------------
 Center     Atomic                   Forces (Hartrees/Bohr)
 Number     Number              X              Y              Z
 -------------------------------------------------------------------
      1        5          -0.012971748    0.010829981    0.003253999
      2        5           0.005601724    0.000287427    0.000702229
      3        5          -0.033311479    0.020667385   -0.006887597
      4        5           0.039921240   -0.012872260    0.009912466
      5        5           0.014092132   -0.012596672   -0.002917166
      6        5          -0.013046048   -0.006453575   -0.003123269
      7        3          -0.000285821    0.000137714   -0.000940661
 -------------------------------------------------------------------
 Cartesian Forces:  Max     0.039921240 RMS     0.014406270
 Leave Link  716 at Wed Jun 19 06:14:28 2019, MaxMem=  4294967296 cpu:               0.2 elap:               0.0
 (Enter /opt/gaussian/gdv-20170407-i10+/gdv/l103.exe)

 GradGradGradGradGradGradGradGradGradGradGradGradGradGradGradGradGradGrad
 Berny optimization.
 Using GEDIIS/GDIIS optimizer.
 FormGI is forming the generalized inverse of G from B-inverse, IUseBI=4.
 Internal  Forces:  Max     0.024579969 RMS     0.010417786
 Search for a local minimum.
 Step number   2 out of a maximum of   55
 All quantities printed in internal units (Hartrees-Bohrs-Radians)
 RMS Force = .10418D-01 SwitMx=.10000D-02 MixMth= 1
 Mixed Optimization -- RFO/linear search
 Update second derivatives using D2CorX and points    2    1
 DE=  2.98D-03 DEPred=-2.49D-04 R=-1.20D+01
 Trust test=-1.20D+01 RLast= 1.39D-01 DXMaxT set to 1.50D-01
 ITU= -1  0
 Use linear search instead of GDIIS.
     Eigenvalues ---    0.01031   0.01172   0.02154   0.02977   0.03587
     Eigenvalues ---    0.04028   0.06188   0.07972   0.08743   0.10707
     Eigenvalues ---    0.14624   0.17828   0.19839   0.24308   0.85437
 RFO step:  Lambda=-8.04277279D-05 EMin= 1.03112492D-02
 Quartic linear search produced a step of -0.92403.
 Iteration  1 RMS(Cart)=  0.01628052 RMS(Int)=  0.00033908
 Iteration  2 RMS(Cart)=  0.00022703 RMS(Int)=  0.00010216
 Iteration  3 RMS(Cart)=  0.00000014 RMS(Int)=  0.00010216
 ITry= 1 IFail=0 DXMaxC= 5.75D-02 DCOld= 1.00D+10 DXMaxT= 1.50D-01 DXLimC= 3.00D+00 Rises=F
 Variable       Old X    -DE/DX   Delta X   Delta X   Delta X     New X
                                 (Linear)    (Quad)   (Total)
    R1        2.86724   0.02368   0.00806  -0.00666   0.00139   2.86864
    R2        5.70175  -0.01913  -0.02154  -0.00135  -0.02289   5.67886
    R3        5.60483   0.02458   0.06817   0.00664   0.07483   5.67966
    R4        4.29289  -0.00420  -0.01030  -0.00214  -0.01240   4.28049
    R5        3.36681   0.01547   0.00456   0.00561   0.01026   3.37708
    R6        4.27678   0.00157  -0.00066   0.00526   0.00452   4.28130
    R7        5.61354   0.01562   0.05940  -0.01928   0.04008   5.65362
    R8        3.15280  -0.01866  -0.01695   0.00874  -0.00819   3.14461
    R9        4.27875   0.00320   0.00133   0.00084   0.00228   4.28103
   R10        4.27264  -0.00379   0.00334  -0.00215   0.00105   4.27368
    A1        0.36031  -0.01519  -0.01029  -0.00099  -0.01124   0.34908
    A2        2.14489   0.00992   0.00824  -0.00799   0.00047   2.14536
    A3        1.46335   0.00540  -0.00345   0.00309  -0.00047   1.46288
    A4        0.99138   0.00265  -0.00538  -0.00057  -0.00579   0.98560
    A5        1.25578   0.01221   0.01277  -0.00128   0.01146   1.26724
    A6        0.98924   0.00827   0.00044   0.00058   0.00096   0.99020
    A7        0.60642   0.00305  -0.00311   0.00042  -0.00272   0.60370
    A8        0.32611  -0.00943  -0.00600  -0.00958  -0.01555   0.31055
    A9        0.99082   0.00365  -0.00467   0.00346  -0.00100   0.98982
   A10        1.57368  -0.00513  -0.00283  -0.00008  -0.00300   1.57068
   A11        0.76118  -0.01583  -0.01034   0.00024  -0.01005   0.75113
   A12        0.80295   0.00728   0.00629  -0.00027   0.00601   0.80896
   A13        1.13778  -0.00197  -0.00140   0.00077  -0.00053   1.13725
   A14        1.14065  -0.00440  -0.00419   0.00184  -0.00240   1.13825
    D1        0.00793  -0.00136  -0.00859   0.00303  -0.00532   0.00261
    D2       -0.75093  -0.00259   0.01018  -0.00610   0.00403  -0.74690
    D3       -2.81003  -0.00784   0.01236  -0.00914   0.00318  -2.80685
    D4        2.18902   0.00483   0.01918  -0.00670   0.01244   2.20146
    D5        0.31888  -0.00000   0.02485  -0.00898   0.01575   0.33463
    D6        1.27606   0.00020   0.00130   0.00570   0.00704   1.28310
    D7        2.65800   0.01294   0.01618  -0.00115   0.01500   2.67301
    D8        0.91324   0.01166   0.01984  -0.00462   0.01530   0.92854
    D9        1.75155   0.00864   0.01599  -0.00209   0.01389   1.76543
   D10        0.27857   0.00640  -0.00440   0.01333   0.00889   0.28746
   D11       -1.46619   0.00512  -0.00074   0.00986   0.00918  -1.45701
   D12       -0.62788   0.00210  -0.00459   0.01239   0.00777  -0.62011
   D13        0.09886   0.00137   0.00658  -0.00137   0.00541   0.10427
   D14       -0.28192   0.00518   0.00729  -0.00001   0.00722  -0.27470
   D15        0.61205   0.01616   0.01813  -0.00215   0.01592   0.62797
   D16        2.83547  -0.00451  -0.03992   0.00137  -0.03860   2.79687
   D17       -1.28841   0.00800   0.00944   0.00553   0.01498  -1.27343
   D18       -0.28705  -0.00923  -0.04212  -0.00124  -0.04361  -0.33066
   D19       -1.13363  -0.00238   0.00012  -0.00158  -0.00150  -1.13513
   D20        1.45544   0.00353   0.01062   0.00815   0.01868   1.47413
   D21        0.61122   0.02022   0.01998   0.00949   0.02926   0.64048
         Item               Value     Threshold  Converged?
 Maximum Force            0.024580     0.000450     NO 
 RMS     Force            0.010418     0.000300     NO 
 Maximum Displacement     0.057543     0.001800     NO 
 RMS     Displacement     0.016340     0.001200     NO 
 Predicted change in Energy=-1.894437D-04
 GradGradGradGradGradGradGradGradGradGradGradGradGradGradGradGradGradGrad

 Leave Link  103 at Wed Jun 19 06:14:28 2019, MaxMem=  4294967296 cpu:               0.2 elap:               0.0
 (Enter /opt/gaussian/gdv-20170407-i10+/gdv/l202.exe)
                          Input orientation:                          
 ---------------------------------------------------------------------
 Center     Atomic      Atomic             Coordinates (Angstroms)
 Number     Number       Type             X           Y           Z
 ---------------------------------------------------------------------
      1          5           0       -2.020429   -0.005760    0.034533
[...]
 CISAX will form     3 AO SS matrices at one time.
 NMat=     3 NSing=     3 JSym2X= 0.
 Root      1 not converged, maximum delta is    0.002183227278859
 Root      2 not converged, maximum delta is    0.002575372204751
 Root      3 not converged, maximum delta is    0.003173571189470
 Excitation Energies [eV] at current iteration:
 Root      1 :     0.216580306203036   Change is   -0.000206791674826
 Root      2 :     1.068361837334431   Change is   -0.000581965820428
 Root      3 :     1.298895645016534   Change is   -0.001045648272549
 Iteration     7 Dimension    39 NMult    36 NNew      3
 CISAX will form     3 AO SS matrices at one time.
 NMat=     3 NSing=     3 JSym2X= 0.
 Root      1 has converged.
 Root      2 not converged, maximum delta is    0.001224141690863
 Root      3 not converged, maximum delta is    0.001440169204353
 Excitation Energies [eV] at current iteration:
 Root      1 :     0.216576031858913   Change is   -0.000004274344123
 Root      2 :     1.068311020563029   Change is   -0.000050816771403
 Root      3 :     1.298804463024331   Change is   -0.000091181992204
 Iteration     8 Dimension    41 NMult    39 NNew      2
 CISAX will form     2 AO SS matrices at one time.
 NMat=     2 NSing=     2 JSym2X= 0.
 Root      1 has converged.
 Root      2 has converged.
 Root      3 has converged.
 Excitation Energies [eV] at current iteration:
 Root      1 :     0.216576013800579   Change is   -0.000000018058335
 Root      2 :     1.068298871417561   Change is   -0.000012149145468
 Root      3 :     1.298798530485860   Change is   -0.000005932538471
 Convergence achieved on expansion vectors.
 ***********************************************************************
 Stability analysis using <AA,BB:AA,BB> singles matrix:
 ***********************************************************************
 1PDM for each excited state written to RWF  633
 Ground to excited state transition densities written to RWF  633

 Eigenvectors of the stability matrix:
 
 Eigenvector   1:  2.844-A    Eigenvalue= 0.0079590  <S**2>=1.772
     14A -> 26A       -0.10994
     16A -> 19A        0.25119
     16A -> 21A        0.18384
     17A -> 18A       -0.15436
     17A -> 19A        0.42707
     17A -> 21A        0.30740
     17A -> 23A       -0.14706
     14B -> 26B       -0.10991
     16B -> 19B        0.25178
     16B -> 21B        0.18353
     17B -> 18B       -0.15455
     17B -> 19B        0.42742
     17B -> 21B        0.30633
     17B -> 23B       -0.14679
 
 Eigenvector   2:  3.059-A    Eigenvalue= 0.0392593  <S**2>=2.089
     16A -> 20A       -0.27869
     16A -> 22A        0.24795
     17A -> 20A        0.42813
     17A -> 22A       -0.38412
     16B -> 20B       -0.27855
     16B -> 22B       -0.24776
     17B -> 20B        0.42815
     17B -> 22B        0.38405
 
 Eigenvector   3:  2.970-A    Eigenvalue= 0.0477300  <S**2>=1.955
     16A -> 18A        0.23628
     16A -> 19A       -0.41219
     16A -> 21A       -0.30305
     16A -> 23A        0.11428
     16A -> 30A        0.11614
     17A -> 18A       -0.11461
     17A -> 19A        0.24388
     17A -> 21A        0.17536
     16B -> 18B        0.23658
     16B -> 19B       -0.41265
     16B -> 21B       -0.30240
     16B -> 23B        0.11413
     16B -> 30B        0.11635
     17B -> 18B       -0.11501
     17B -> 19B        0.24454
     17B -> 21B        0.17504
 The wavefunction is stable under the perturbations considered.
 Leave Link  914 at Wed Jun 19 06:23:50 2019, MaxMem=  4294967296 cpu:             579.2 elap:              48.4
 (Enter /opt/gaussian/gdv-20170407-i10+/gdv/l601.exe)
 Copying SCF densities to generalized density rwf, IOpCl= 1 IROHF=0.

 **********************************************************************

            Population analysis using the SCF Density.

 **********************************************************************

 Orbital symmetries:
 Alpha Orbitals:
       Occupied  (A) (A) (A) (A) (A) (A) (A) (A) (A) (A) (A) (A)
                 (A) (A) (A) (A) (A)
       Virtual   (A) (A) (A) (A) (A) (A) (A) (A) (A) (A) (A) (A)
                 (A) (A) (A) (A) (A) (A) (A) (A) (A) (A) (A) (A)
                 (A) (A) (A) (A) (A) (A) (A) (A) (A) (A) (A) (A)
                 (A) (A) (A) (A) (A) (A) (A) (A) (A) (A) (A) (A)
                 (A) (A) (A) (A) (A) (A) (A) (A) (A) (A) (A) (A)
                 (A) (A) (A) (A) (A) (A) (A) (A) (A) (A) (A) (A)
                 (A) (A) (A) (A) (A) (A) (A) (A) (A) (A) (A) (A)
                 (A) (A) (A) (A) (A) (A) (A) (A) (A) (A) (A) (A)
                 (A) (A) (A) (A) (A) (A) (A) (A) (A) (A) (A) (A)
                 (A) (A) (A) (A) (A) (A) (A) (A) (A) (A) (A) (A)
                 (A) (A) (A) (A) (A) (A) (A) (A) (A) (A) (A) (A)
                 (A) (A) (A) (A) (A)
 Beta  Orbitals:
       Occupied  (A) (A) (A) (A) (A) (A) (A) (A) (A) (A) (A) (A)
                 (A) (A) (A) (A) (A)
       Virtual   (A) (A) (A) (A) (A) (A) (A) (A) (A) (A) (A) (A)
                 (A) (A) (A) (A) (A) (A) (A) (A) (A) (A) (A) (A)
                 (A) (A) (A) (A) (A) (A) (A) (A) (A) (A) (A) (A)
                 (A) (A) (A) (A) (A) (A) (A) (A) (A) (A) (A) (A)
                 (A) (A) (A) (A) (A) (A) (A) (A) (A) (A) (A) (A)
                 (A) (A) (A) (A) (A) (A) (A) (A) (A) (A) (A) (A)
                 (A) (A) (A) (A) (A) (A) (A) (A) (A) (A) (A) (A)
                 (A) (A) (A) (A) (A) (A) (A) (A) (A) (A) (A) (A)
                 (A) (A) (A) (A) (A) (A) (A) (A) (A) (A) (A) (A)
                 (A) (A) (A) (A) (A) (A) (A) (A) (A) (A) (A) (A)
                 (A) (A) (A) (A) (A) (A) (A) (A) (A) (A) (A) (A)
                 (A) (A) (A) (A) (A)
 The electronic state is 1-A.
 Alpha  occ. eigenvalues --   -6.56118  -6.56095  -6.56040  -6.56018  -6.53920
 Alpha  occ. eigenvalues --   -6.53584  -1.86247  -0.47791  -0.38073  -0.23893
 Alpha  occ. eigenvalues --   -0.23043  -0.12809  -0.11974  -0.09231  -0.07061
 Alpha  occ. eigenvalues --   -0.04529  -0.02837
 Alpha virt. eigenvalues --    0.06074   0.07145   0.07202   0.07368   0.07427
 Alpha virt. eigenvalues --    0.08277   0.08660   0.12698   0.12911   0.13124
 Alpha virt. eigenvalues --    0.14450   0.14631   0.15209   0.15322   0.15515
 Alpha virt. eigenvalues --    0.16154   0.17136   0.17664   0.17709   0.17941
 Alpha virt. eigenvalues --    0.18303   0.20063   0.20282   0.21002   0.21375
 Alpha virt. eigenvalues --    0.21611   0.22714   0.22959   0.23600   0.23656
 Alpha virt. eigenvalues --    0.24099   0.25620   0.26190   0.26586   0.26948
 Alpha virt. eigenvalues --    0.27001   0.28805   0.28818   0.29552   0.30415
 Alpha virt. eigenvalues --    0.30774   0.32032   0.32506   0.36909   0.41581
 Alpha virt. eigenvalues --    0.42943   0.43744   0.46003   0.47552   0.49682
 Alpha virt. eigenvalues --    0.53490   0.53768   0.53794   0.53980   0.54220
 Alpha virt. eigenvalues --    0.55677   0.56153   0.57022   0.57615   0.58692
 Alpha virt. eigenvalues --    0.59994   0.60165   0.61762   0.64629   0.65457
 Alpha virt. eigenvalues --    0.66498   0.67601   0.70507   0.72423   0.75476
 Alpha virt. eigenvalues --    0.78818   0.78969   0.79365   0.80004   0.82941
 Alpha virt. eigenvalues --    0.84317   0.85695   0.88401   0.89465   0.89670
 Alpha virt. eigenvalues --    0.90108   0.97256   0.98401   0.99846   1.13467
 Alpha virt. eigenvalues --    1.16355   1.18226   1.22189   1.26675   1.28340
 Alpha virt. eigenvalues --    1.31871   1.32855   1.35052   1.40776   1.43096
 Alpha virt. eigenvalues --    1.44205   1.47916   1.50532   1.51881   1.53762
 Alpha virt. eigenvalues --    1.57516   1.61567   1.64264   1.66579   1.76228
 Alpha virt. eigenvalues --    1.77404   1.79731   1.83127   1.83940   1.89161
 Alpha virt. eigenvalues --    2.04648   2.08279   2.10164   2.15224   2.15644
 Alpha virt. eigenvalues --    2.17329   2.20977   2.22859   2.26558   2.33296
 Alpha virt. eigenvalues --    2.34108   2.36701   2.41262   2.51246   2.52499
 Alpha virt. eigenvalues --    2.55755   2.61250   2.77399   2.99001   3.15493
 Alpha virt. eigenvalues --    4.05848  14.21405  14.59533  14.84105  15.22748
 Alpha virt. eigenvalues --   15.24786  15.52721
  Beta  occ. eigenvalues --   -6.56118  -6.56095  -6.56040  -6.56019  -6.53925
  Beta  occ. eigenvalues --   -6.53579  -1.86247  -0.47790  -0.38073  -0.23893
  Beta  occ. eigenvalues --   -0.23044  -0.12809  -0.11974  -0.09230  -0.07061
  Beta  occ. eigenvalues --   -0.04530  -0.02838
  Beta virt. eigenvalues --    0.06074   0.07144   0.07201   0.07368   0.07427
  Beta virt. eigenvalues --    0.08277   0.08660   0.12698   0.12912   0.13125
  Beta virt. eigenvalues --    0.14450   0.14631   0.15210   0.15322   0.15514
  Beta virt. eigenvalues --    0.16154   0.17135   0.17663   0.17712   0.17941
  Beta virt. eigenvalues --    0.18302   0.20064   0.20282   0.21003   0.21375
  Beta virt. eigenvalues --    0.21612   0.22713   0.22958   0.23600   0.23656
  Beta virt. eigenvalues --    0.24100   0.25620   0.26190   0.26586   0.26947
  Beta virt. eigenvalues --    0.27001   0.28804   0.28818   0.29552   0.30416
  Beta virt. eigenvalues --    0.30774   0.32031   0.32507   0.36910   0.41581
  Beta virt. eigenvalues --    0.42942   0.43744   0.46003   0.47551   0.49682
  Beta virt. eigenvalues --    0.53490   0.53769   0.53792   0.53982   0.54218
  Beta virt. eigenvalues --    0.55677   0.56154   0.57022   0.57615   0.58694
  Beta virt. eigenvalues --    0.59994   0.60166   0.61762   0.64628   0.65460
  Beta virt. eigenvalues --    0.66495   0.67601   0.70506   0.72423   0.75476
  Beta virt. eigenvalues --    0.78817   0.78958   0.79375   0.80004   0.82939
  Beta virt. eigenvalues --    0.84321   0.85697   0.88398   0.89461   0.89671
  Beta virt. eigenvalues --    0.90113   0.97256   0.98401   0.99846   1.13464
  Beta virt. eigenvalues --    1.16355   1.18225   1.22189   1.26676   1.28340
  Beta virt. eigenvalues --    1.31872   1.32855   1.35052   1.40775   1.43096
  Beta virt. eigenvalues --    1.44205   1.47917   1.50533   1.51880   1.53762
  Beta virt. eigenvalues --    1.57516   1.61564   1.64266   1.66579   1.76230
  Beta virt. eigenvalues --    1.77405   1.79731   1.83115   1.83950   1.89161
  Beta virt. eigenvalues --    2.04647   2.08279   2.10164   2.15223   2.15644
  Beta virt. eigenvalues --    2.17329   2.20978   2.22858   2.26558   2.33295
  Beta virt. eigenvalues --    2.34108   2.36703   2.41262   2.51219   2.52524
  Beta virt. eigenvalues --    2.55755   2.61250   2.77399   2.99002   3.15492
  Beta virt. eigenvalues --    4.05848  14.21405  14.59533  14.84105  15.22748
  Beta virt. eigenvalues --   15.24786  15.52722
          Condensed to atoms (all electrons):
               1          2          3          4          5          6
     1  B    4.717404   0.546743  -0.103949  -0.267880   0.546612  -0.104651
     2  B    0.546743   4.124162   0.158387  -0.104336   0.260415  -0.066720
     3  B   -0.103949   0.158387   4.122513   0.545325  -0.066354   0.261657
     4  B   -0.267880  -0.104336   0.545325   4.719673  -0.103558   0.545489
     5  B    0.546612   0.260415  -0.066354  -0.103558   4.122576   0.158396
     6  B   -0.104651  -0.066720   0.261657   0.545489   0.158396   4.124092
     7  Li   0.056850   0.125512   0.126404   0.055503   0.125202   0.126681
               7
     1  B    0.056850
     2  B    0.125512
     3  B    0.126404
     4  B    0.055503
     5  B    0.125202
     6  B    0.126681
     7  Li   2.426123
          Atomic-Atomic Spin Densities.
               1          2          3          4          5          6
     1  B   -0.253872  -0.028825   0.005876  -0.000298  -0.028776   0.005802
     2  B   -0.028825   0.060614   0.000040  -0.006038   0.023402  -0.000215
     3  B    0.005876   0.000040  -0.060573   0.028928  -0.000206  -0.022971
     4  B   -0.000298  -0.006038   0.028928   0.254292  -0.006119   0.028990
     5  B   -0.028776   0.023402  -0.000206  -0.006119   0.060882  -0.000125
     6  B    0.005802  -0.000215  -0.022971   0.028990  -0.000125  -0.060307
     7  Li  -0.009258   0.006597  -0.006574   0.009165   0.006630  -0.006540
               7
     1  B   -0.009258
     2  B    0.006597
     3  B   -0.006574
     4  B    0.009165
     5  B    0.006630
     6  B   -0.006540
     7  Li  -0.000005
 Mulliken charges and spin densities:
               1          2
     1  B   -0.391129  -0.309352
     2  B   -0.044163   0.055575
     3  B   -0.043983  -0.055479
     4  B   -0.390216   0.308921
     5  B   -0.043289   0.055688
     6  B   -0.044944  -0.055367
     7  Li  -0.042275   0.000014
 Sum of Mulliken charges =  -1.00000  -0.00000
 Mulliken charges and spin densities with hydrogens summed into heavy atoms:
               1          2
     1  B   -0.391129  -0.309352
     2  B   -0.044163   0.055575
     3  B   -0.043983  -0.055479
     4  B   -0.390216   0.308921
     5  B   -0.043289   0.055688
     6  B   -0.044944  -0.055367
     7  Li  -0.042275   0.000014
 Electronic spatial extent (au):  <R**2>=            409.2049
 Charge=             -1.0000 electrons
 Dipole moment (field-independent basis, Debye):
    X=              0.0051    Y=              0.0005    Z=              3.7934  Tot=              3.7934
 Quadrupole moment (field-independent basis, Debye-Ang):
   XX=            -76.6897   YY=            -51.1753   ZZ=            -37.4866
   XY=             -0.0046   XZ=              0.0096   YZ=              0.0017
 Traceless Quadrupole moment (field-independent basis, Debye-Ang):
   XX=            -21.5725   YY=              3.9419   ZZ=             17.6306
   XY=             -0.0046   XZ=              0.0096   YZ=              0.0017
 Octapole moment (field-independent basis, Debye-Ang**2):
  XXX=              0.0346  YYY=              0.0010  ZZZ=             24.2485  XYY=              0.0076
  XXY=             -0.0000  XXZ=             -2.0543  XZZ=              0.0250  YZZ=              0.0031
  YYZ=              1.0837  XYZ=             -0.0018
 Hexadecapole moment (field-independent basis, Debye-Ang**3):
 XXXX=           -848.2119 YYYY=           -246.8038 ZZZZ=           -106.5781 XXXY=             -0.0366
 XXXZ=             -0.0068 YYYX=             -0.0201 YYYZ=              0.0036 ZZZX=              0.0682
 ZZZY=              0.0080 XXYY=           -177.2004 XXZZ=           -153.3469 YYZZ=            -63.3919
 XXYZ=              0.0016 YYXZ=              0.0111 ZZXY=             -0.0061
 N-N= 1.174612852716D+02 E-N=-6.021435292920D+02  KE= 1.556116299229D+02
                          Isotropic Fermi Contact Couplings
        Atom                 a.u.       MegaHertz       Gauss      10(-4) cm-1
     1  B(11)             -0.10063     -72.16891     -25.75166     -24.07296
     2  B(11)             -0.00414      -2.96737      -1.05883      -0.98981
     3  B(11)              0.00415       2.97741       1.06241       0.99316
     4  B(11)              0.10045      72.04010      25.70570      24.02999
     5  B(11)             -0.00417      -2.99269      -1.06787      -0.99826
     6  B(11)              0.00411       2.95058       1.05284       0.98421
     7  Li(7)             -0.00000      -0.00122      -0.00044      -0.00041
 --------------------------------------------------------
       Center         ----  Spin Dipole Couplings  ----
                      3XX-RR        3YY-RR        3ZZ-RR
 --------------------------------------------------------
     1   Atom       -0.095022      0.050432      0.044591
     2   Atom       -0.013769      0.027445     -0.013676
     3   Atom        0.013719     -0.027394      0.013675
     4   Atom        0.094991     -0.050416     -0.044575
     5   Atom       -0.013750      0.027428     -0.013678
     6   Atom        0.013734     -0.027405      0.013670
     7   Atom        0.000008     -0.000005     -0.000002
 --------------------------------------------------------
                        XY            XZ            YZ
 --------------------------------------------------------
     1   Atom       -0.000073      0.019764      0.000018
     2   Atom       -0.040195      0.007724      0.004058
     3   Atom       -0.040147      0.007699     -0.004141
     4   Atom        0.000081      0.019680      0.000019
     5   Atom        0.040189      0.007669     -0.004129
     6   Atom        0.040160      0.007740      0.004082
     7   Atom       -0.000000     -0.001533     -0.000001
 --------------------------------------------------------


 ---------------------------------------------------------------------------------
              Anisotropic Spin Dipole Couplings in Principal Axis System
 ---------------------------------------------------------------------------------

       Atom             a.u.   MegaHertz   Gauss  10(-4) cm-1        Axes

              Baa    -0.0978   -16.739    -5.973    -5.584  0.9905  0.0005 -0.1375
     1 B(11)  Bbb     0.0473     8.104     2.892     2.703  0.1375 -0.0025  0.9905
              Bcc     0.0504     8.635     3.081     2.880 -0.0002  1.0000  0.0026
 
              Baa    -0.0411    -7.036    -2.511    -2.347  0.8142  0.4954 -0.3027
     2 B(11)  Bbb    -0.0109    -1.869    -0.667    -0.623  0.2538  0.1651  0.9531
              Bcc     0.0520     8.905     3.178     2.970 -0.5221  0.8528 -0.0087
 
              Baa    -0.0519    -8.894    -3.174    -2.967  0.5223  0.8528 -0.0075
     3 B(11)  Bbb     0.0109     1.865     0.666     0.622 -0.2554  0.1647  0.9527
              Bcc     0.0411     7.028     2.508     2.344  0.8137 -0.4956  0.3038
 
              Baa    -0.0504    -8.632    -3.080    -2.879 -0.0002  1.0000 -0.0026
     4 B(11)  Bbb    -0.0473    -8.098    -2.890    -2.701 -0.1370  0.0025  0.9906
              Bcc     0.0977    16.730     5.970     5.580  0.9906  0.0006  0.1370
 
              Baa    -0.0411    -7.033    -2.510    -2.346  0.8140 -0.4958 -0.3026
     5 B(11)  Bbb    -0.0109    -1.870    -0.667    -0.624  0.2544 -0.1640  0.9531
              Bcc     0.0520     8.903     3.177     2.970  0.5221  0.8528  0.0074
 
              Baa    -0.0520    -8.896    -3.174    -2.968 -0.5223  0.8527  0.0086
     6 B(11)  Bbb     0.0109     1.865     0.665     0.622 -0.2547 -0.1656  0.9527
              Bcc     0.0411     7.032     2.509     2.346  0.8138  0.4954  0.3037
 
              Baa    -0.0015    -0.317    -0.113    -0.106  0.7059  0.0007  0.7083
     7 Li(7)  Bbb    -0.0000    -0.001    -0.000    -0.000 -0.0008  1.0000 -0.0002
              Bcc     0.0015     0.319     0.114     0.106  0.7083  0.0005 -0.7059
 

 ---------------------------------------------------------------------------------

 No NMR shielding tensors so no spin-rotation constants.
 Leave Link  601 at Wed Jun 19 06:23:50 2019, MaxMem=  4294967296 cpu:               3.0 elap:               0.3
 (Enter /opt/gaussian/gdv-20170407-i10+/gdv/l9999.exe)
 Unable to Open any file for archive entry.
 1\1\GINC-NODE05\Stability\UB3LYP\Gen\B6Li1(1-)\HHARB\19-Jun-2019\0\\#p
  ub3lyp geom=allcheck guess=read chkbasis stable scf=(novaracc,maxcycl
 es=512) int=(acc2e=12,grid=ultrafine)\\Title Card Required\\-1,1\B,0,-
 2.0241246188,-0.0001230363,0.0403098033\B,0,-0.829738639,0.8926587207,
 -0.2644907863\B,0,0.8289042925,0.8920821921,-0.2660427143\B,0,2.023859
 3415,0.0000781868,0.0374174392\B,0,-0.8293047572,-0.8920048516,-0.2650
 681101\B,0,0.8293769748,-0.8921648851,-0.2676640123\Li,0,0.0031164062,
 -0.0009183267,1.6424323805\\Version=ES64L-GDVRevI.10+\State=1-A\HF=-15
 6.5013759\S2=0.124723\S2-1=0.\S2A=0.003908\RMSD=1.098e-09\Dipole=0.003
 0002,-0.0008428,1.4924389\Quadrupole=-16.0385738,2.9306959,13.1078779,
 -0.0009725,0.0266093,-0.0059062\PG=C01 [X(B6Li1)]\\@
 The archive entry for this job was punched.


 QUANTUM MECHANICS IS BOHRING -- M.S. GORDON
 Job cpu time:       0 days  0 hours 10 minutes 10.6 seconds.
 Elapsed time:       0 days  0 hours  0 minutes 51.4 seconds.
 File lengths (MBytes):  RWF=    126 Int=      0 D2E=      0 Chk=     67 Scr=      1
 Normal termination of Gaussian DV at Wed Jun 19 06:23:50 2019.
