************************************************************
This is node16.cluster of cluster Pinconning.
Date: Wed Jun 19 17:50:39 PDT 2019
************************************************************
 Set GAUSS_MDEF to "32GB".
 Set GAUSS_PDEF to "12".
 Entering Gaussian System, Link 0=gdv
 Initial command:
 /opt/gaussian/gdv-20170407-i10+/gdv/local/l1.exe "/tmp/673932.1.allnodes.q/Gau-22641.inp" -scrdir="/tmp/673932.1.allnodes.q/"
 Default is to use a total of  12 processors:
                               12 via shared-memory
                                1 via Linda
 Entering Link 1 = /opt/gaussian/gdv-20170407-i10+/gdv/local/l1.exe PID=     22642.
  
 Copyright (c) 1988-2017, Gaussian, Inc.  All Rights Reserved.
  
 This is the private, development version of
 the Gaussian(R) DV system of programs. It is based on
 the Gaussian(R) 16 system (copyright 2016, Gaussian, Inc.),
 the Gaussian(R) 09 system (copyright 2009, Gaussian, Inc.),
 the Gaussian(R) 03 system (copyright 2003, Gaussian, Inc.),
 the Gaussian(R) 98 system (copyright 1998, Gaussian, Inc.),
 the Gaussian(R) 94 system (copyright 1995, Gaussian, Inc.),
 the Gaussian 92(TM) system (copyright 1992, Gaussian, Inc.),
 the Gaussian 90(TM) system (copyright 1990, Gaussian, Inc.),
 the Gaussian 88(TM) system (copyright 1988, Gaussian, Inc.),
 the Gaussian 86(TM) system (copyright 1986, Carnegie Mellon
 University), and the Gaussian 82(TM) system (copyright 1983,
 Carnegie Mellon University). Gaussian is a federally registered
 trademark of Gaussian, Inc.
  
 This software contains proprietary and confidential information,
 including trade secrets, belonging to Gaussian, Inc.
  
 This software is provided under written license and may be
 used, copied, transmitted, or stored only in accord with that
 written license.
  
 The following legend is applicable only to US Government
 contracts under FAR:
  
                    RESTRICTED RIGHTS LEGEND
  
 Use, reproduction and disclosure by the US Government is
 subject to restrictions as set forth in subparagraphs (a)
 and (c) of the Commercial Computer Software - Restricted
 Rights clause in FAR 52.227-19.
  
 Gaussian, Inc.
 340 Quinnipiac St., Bldg. 40, Wallingford CT 06492
  
  
 ---------------------------------------------------------------
 Warning -- This program may not be used in any manner that
 competes with the business of Gaussian, Inc. or will provide
 assistance to any competitor of Gaussian, Inc.  The licensee
 of this program is prohibited from giving any competitor of
 Gaussian, Inc. access to this program.  By using this program,
 the user acknowledges that Gaussian, Inc. is engaged in the
 business of creating and licensing software in the field of
 computational chemistry and represents and warrants to the
 licensee that it is not a competitor of Gaussian, Inc. and that
 it will not use this program in any manner prohibited above.
 ---------------------------------------------------------------
  

 Cite this work as:
 Gaussian Development Version, Revision I.10+,
 M. J. Frisch, G. W. Trucks, H. B. Schlegel, G. E. Scuseria, 
 M. A. Robb, J. R. Cheeseman, G. Scalmani, V. Barone, 
 G. A. Petersson, H. Nakatsuji, X. Li, M. Caricato, A. V. Marenich, 
 J. Bloino, B. G. Janesko, R. Gomperts, B. Mennucci, H. P. Hratchian, 
 J. V. Ortiz, A. F. Izmaylov, J. L. Sonnenberg, D. Williams-Young, 
 F. Ding, F. Lipparini, F. Egidi, J. Goings, B. Peng, A. Petrone, 
 T. Henderson, D. Ranasinghe, V. G. Zakrzewski, J. Gao, N. Rega, 
 G. Zheng, W. Liang, M. Hada, M. Ehara, K. Toyota, R. Fukuda, 
 J. Hasegawa, M. Ishida, T. Nakajima, Y. Honda, O. Kitao, H. Nakai, 
 T. Vreven, K. Throssell, J. A. Montgomery, Jr., J. E. Peralta, 
 F. Ogliaro, M. J. Bearpark, J. J. Heyd, E. N. Brothers, K. N. Kudin, 
 V. N. Staroverov, T. A. Keith, R. Kobayashi, J. Normand, 
 K. Raghavachari, A. P. Rendell, J. C. Burant, S. S. Iyengar, 
 J. Tomasi, M. Cossi, J. M. Millam, M. Klene, C. Adamo, R. Cammi, 
 J. W. Ochterski, R. L. Martin, K. Morokuma, O. Farkas, 
 J. B. Foresman, and D. J. Fox, Gaussian, Inc., Wallingford CT, 2016.
 
 *******************************************
 Gaussian DV:  ES64L-GDVRevI.10+ 27-Mar-2017
                 19-Jun-2019 
 *******************************************
 %chk=2-1-3-oso.chk
 ----------------------------------------------------------------------
 #p ub3lyp/6-311+G* scf=(novaracc,maxcycles=512) int=(acc2e=12,grid=ult
 rafine) opt freq
 ----------------------------------------------------------------------
 1/18=20,19=15,26=4,38=1/1,3;
 2/9=110,12=2,17=6,18=5,40=1/2;
 3/5=4,6=6,7=11,11=2,25=1,27=12,30=1,71=1,74=-5,75=-5,116=2/1,2,3;
 4//1;
 5/5=2,7=512,38=1,87=12/2;
 6/7=2,8=2,9=2,10=2,28=1,87=12/1;
 7/87=12/1,2,3,16;
 1/18=20,19=15,26=4/3(2);
 2/9=110/2;
 99//99;
 2/9=110/2;
 3/5=4,6=6,7=11,11=2,25=1,27=12,30=1,71=1,74=-5,75=-5,116=2/1,2,3;
 4/5=5,16=3,69=1/1;
 5/5=2,7=512,38=1,87=12/2;
 7/87=12/1,2,3,16;
 1/18=20,19=15,26=4/3(-5);
 2/9=110/2;
 6/7=2,8=2,9=2,10=2,19=2,28=1,87=12/1;
 99/9=1/99;
 Leave Link    1 at Wed Jun 19 17:50:39 2019, MaxMem=           0 cpu:               0.9 elap:               0.1
 (Enter /opt/gaussian/gdv-20170407-i10+/gdv/l101.exe)
 -------------------
 Title Card Required
 -------------------
 Symbolic Z-matrix:
 Charge = -1 Multiplicity = 3
 Li                    0.        0.        1.6708 
 B                     0.        2.0431    0.125 
 B                     0.       -2.0431    0.125 
 B                     1.0137    0.9631   -0.2818 
 B                    -0.6442    0.613    -0.3444 
 B                    -1.0137   -0.9631   -0.2818 
 B                     0.6442   -0.613    -0.3444 
 
 Add atom      1 valence  6 ND=      0 dihedral       2      1      3      4
 Add atom      1 valence  6 ND=      0 dihedral       2      1      3      5
 Add atom      1 valence  6 ND=      0 dihedral       2      1      4      5
 Add atom      1 valence  6 ND=      0 dihedral       2      1      3      6
 Add atom      1 valence  6 ND=      0 dihedral       2      1      4      6
 Add atom      1 valence  6 ND=      0 dihedral       2      1      5      6
 Add atom      1 valence  6 ND=      0 dihedral       2      1      3      7
 Add atom      1 valence  6 ND=      0 dihedral       2      1      4      7
 Add atom      1 valence  6 ND=      0 dihedral       2      1      5      7
 Add atom      1 valence  6 ND=      0 dihedral       2      1      6      7
 ITRead=  0  0  0  0  0  0  0
 MicOpt= -1 -1 -1 -1 -1 -1 -1
 NAtoms=      7 NQM=        7 NQMF=       0 NMMI=      0 NMMIF=      0
                NMic=       0 NMicF=      0.
                    Isotopes and Nuclear Properties:
 (Nuclear quadrupole moments (NQMom) in fm**2, nuclear magnetic moments (NMagM)
  in nuclear magnetons)

  Atom         1           2           3           4           5           6           7
 IAtWgt=           7          11          11          11          11          11          11
 AtmWgt=   7.0160045  11.0093053  11.0093053  11.0093053  11.0093053  11.0093053  11.0093053
 NucSpn=           3           3           3           3           3           3           3
 AtZEff=  -0.0000000  -0.0000000  -0.0000000  -0.0000000  -0.0000000  -0.0000000  -0.0000000
 NQMom=   -4.0100000   4.0590000   4.0590000   4.0590000   4.0590000   4.0590000   4.0590000
 NMagM=    3.2564240   2.6886370   2.6886370   2.6886370   2.6886370   2.6886370   2.6886370
 AtZNuc=   3.0000000   5.0000000   5.0000000   5.0000000   5.0000000   5.0000000   5.0000000
 Leave Link  101 at Wed Jun 19 17:50:39 2019, MaxMem=  4294967296 cpu:               5.0 elap:               0.4
 (Enter /opt/gaussian/gdv-20170407-i10+/gdv/l103.exe)

 GradGradGradGradGradGradGradGradGradGradGradGradGradGradGradGradGradGrad
 Berny optimization.
 Initialization pass.
                           ----------------------------
                           !    Initial Parameters    !
                           ! (Angstroms and Degrees)  !
 --------------------------                            --------------------------
 ! Name  Definition              Value          Derivative Info.                !
 --------------------------------------------------------------------------------
 ! R1    R(1,2)                  2.562          estimate D2E/DX2                !
 ! R2    R(1,3)                  2.562          estimate D2E/DX2                !
 ! R3    R(1,4)                  2.4016         estimate D2E/DX2                !
 ! R4    R(1,5)                  2.2027         estimate D2E/DX2                !
 ! R5    R(1,6)                  2.4016         estimate D2E/DX2                !
 ! R6    R(1,7)                  2.2027         estimate D2E/DX2                !
 ! R7    R(2,4)                  1.5361         estimate D2E/DX2                !
 ! R8    R(2,5)                  1.6372         estimate D2E/DX2                !
 ! R9    R(3,6)                  1.5361         estimate D2E/DX2                !
 ! R10   R(3,7)                  1.6372         estimate D2E/DX2                !
 ! R11   R(4,5)                  1.6956         estimate D2E/DX2                !
 ! R12   R(4,7)                  1.62           estimate D2E/DX2                !
 ! R13   R(5,6)                  1.62           estimate D2E/DX2                !
 ! R14   R(5,7)                  1.7785         estimate D2E/DX2                !
 ! R15   R(6,7)                  1.6956         estimate D2E/DX2                !
 ! A1    A(2,1,3)              105.778          estimate D2E/DX2                !
 ! A2    A(2,1,6)               80.1685         estimate D2E/DX2                !
 ! A3    A(2,1,7)               70.7268         estimate D2E/DX2                !
 ! A4    A(3,1,4)               80.1685         estimate D2E/DX2                !
 ! A5    A(3,1,5)               70.7268         estimate D2E/DX2                !
 ! A6    A(4,1,6)               71.2133         estimate D2E/DX2                !
 ! A7    A(2,4,7)              122.9387         estimate D2E/DX2                !
 ! A8    A(2,5,6)              158.196          estimate D2E/DX2                !
 ! A9    A(2,5,7)              108.4873         estimate D2E/DX2                !
 ! A10   A(4,5,6)              114.9896         estimate D2E/DX2                !
 ! A11   A(3,6,5)              122.9387         estimate D2E/DX2                !
 ! A12   A(3,7,4)              158.196          estimate D2E/DX2                !
 ! A13   A(3,7,5)              108.4873         estimate D2E/DX2                !
 ! A14   A(4,7,6)              114.9896         estimate D2E/DX2                !
 ! D1    D(2,1,3,4)             25.3648         estimate D2E/DX2                !
 ! D2    D(2,1,3,5)            -18.0488         estimate D2E/DX2                !
 ! D3    D(2,1,3,6)            -46.0843         estimate D2E/DX2                !
 ! D4    D(2,1,3,7)             27.5057         estimate D2E/DX2                !
 ! D5    D(2,1,4,5)            -63.0755         estimate D2E/DX2                !
 ! D6    D(2,1,4,6)            -99.3601         estimate D2E/DX2                !
 ! D7    D(2,1,4,7)           -137.3572         estimate D2E/DX2                !
 ! D8    D(2,1,5,6)            176.7783         estimate D2E/DX2                !
 ! D9    D(2,1,5,7)            114.1772         estimate D2E/DX2                !
 ! D10   D(2,1,6,7)             72.2118         estimate D2E/DX2                !
 ! D11   D(2,4,7,3)            -43.4547         estimate D2E/DX2                !
 ! D12   D(2,4,7,6)             13.5322         estimate D2E/DX2                !
 ! D13   D(2,5,6,3)            -43.4547         estimate D2E/DX2                !
 ! D14   D(4,5,6,3)             13.5322         estimate D2E/DX2                !
 ! D15   D(2,5,7,3)            144.8078         estimate D2E/DX2                !
 --------------------------------------------------------------------------------
 Trust Radius=3.00D-01 FncErr=1.00D-07 GrdErr=1.00D-06 EigMax=2.50D+02 EigMin=1.00D-04
 Number of steps in this run=     54 maximum allowed number of steps=    100.
 GradGradGradGradGradGradGradGradGradGradGradGradGradGradGradGradGradGrad

 Leave Link  103 at Wed Jun 19 17:50:39 2019, MaxMem=  4294967296 cpu:               0.1 elap:               0.0
 (Enter /opt/gaussian/gdv-20170407-i10+/gdv/l202.exe)
                          Input orientation:                          
 ---------------------------------------------------------------------
 Center     Atomic      Atomic             Coordinates (Angstroms)
 Number     Number       Type             X           Y           Z
 ---------------------------------------------------------------------
      1          3           0        0.000000    0.000000    1.670800
      2          5           0        0.000000    2.043100    0.125000
      3          5           0        0.000000   -2.043100    0.125000
      4          5           0        1.013700    0.963100   -0.281800
      5          5           0       -0.644200    0.613000   -0.344400
      6          5           0       -1.013700   -0.963100   -0.281800
      7          5           0        0.644200   -0.613000   -0.344400
 ---------------------------------------------------------------------
                    Distance matrix (angstroms):
                    1          2          3          4          5
     1  Li   0.000000
     2  B    2.561983   0.000000
     3  B    2.561983   4.086200   0.000000
     4  B    2.401624   1.536058   3.198486   0.000000
     5  B    2.202679   1.637228   2.773120   1.695618   0.000000
     6  B    2.401624   3.198486   1.536058   2.796533   1.620043
     7  B    2.202679   2.773120   1.637228   1.620043   1.778497
                    6          7
     6  B    0.000000
     7  B    1.695618   0.000000
 Stoichiometry    B6Li(1-,3)
 Framework group  C2[C2(Li),X(B6)]
 Deg. of freedom     8
 Full point group                 C2      NOp   2
 Largest Abelian subgroup         C2      NOp   2
 Largest concise Abelian subgroup C2      NOp   2
                         Standard orientation:                         
 ---------------------------------------------------------------------
 Center     Atomic      Atomic             Coordinates (Angstroms)
 Number     Number       Type             X           Y           Z
 ---------------------------------------------------------------------
      1          3           0        0.000000    0.000000    1.670788
      2          5           0        0.000000    2.043100    0.124988
      3          5           0       -0.000000   -2.043100    0.124988
      4          5           0        1.013700    0.963100   -0.281812
      5          5           0       -0.644200    0.613000   -0.344412
      6          5           0       -1.013700   -0.963100   -0.281812
      7          5           0        0.644200   -0.613000   -0.344412
 ---------------------------------------------------------------------
 Rotational constants (GHZ):           9.3175787           3.4449800           3.3167333
 Leave Link  202 at Wed Jun 19 17:50:39 2019, MaxMem=  4294967296 cpu:               0.1 elap:               0.0
 (Enter /opt/gaussian/gdv-20170407-i10+/gdv/l301.exe)
 Standard basis: 6-311+G(d) (5D, 7F)
 Ernie: Thresh=  0.10000D-02 Tol=  0.10000D-05 Strict=F.
 There are    82 symmetry adapted cartesian basis functions of A   symmetry.
 There are    79 symmetry adapted cartesian basis functions of B   symmetry.
 There are    78 symmetry adapted basis functions of A   symmetry.
 There are    76 symmetry adapted basis functions of B   symmetry.
   154 basis functions,   252 primitive gaussians,   161 cartesian basis functions
    18 alpha electrons       16 beta electrons
       nuclear repulsion energy       118.5566856706 Hartrees.
 IExCor=  402 DFT=T Ex+Corr=B3LYP ExCW=0 ScaHFX=  0.200000
 ScaDFX=  0.800000  0.720000  1.000000  0.810000 ScalE2=  1.000000  1.000000
 IRadAn=      5 IRanWt=     -1 IRanGd=            0 ICorTp=0 IEmpDi=  4
 NAtoms=    7 NActive=    7 NUniq=    4 SFac= 3.06D+00 NAtFMM=   60 NAOKFM=F Big=F
 Integral buffers will be    131072 words long.
 Raffenetti 2 integral format.
 Two-electron integral symmetry is turned on.
 Leave Link  301 at Wed Jun 19 17:50:39 2019, MaxMem=  4294967296 cpu:               0.7 elap:               0.1
 (Enter /opt/gaussian/gdv-20170407-i10+/gdv/l302.exe)
 NPDir=0 NMtPBC=     1 NCelOv=     1 NCel=       1 NClECP=     1 NCelD=      1
         NCelK=      1 NCelE2=     1 NClLst=     1 CellRange=     0.0.
 One-electron integrals computed using PRISM.
 One-electron integral symmetry used in STVInt
 NBasis=   154 RedAO= T EigKep=  7.80D-06  NBF=    78    76
 NBsUse=   154 1.00D-06 EigRej= -1.00D+00 NBFU=    78    76
 Precomputing XC quadrature grid using
 IXCGrd= 4 IRadAn=           5 IRanWt=          -1 IRanGd=           0 AccXCQ= 1.00D-12.
 Generated NRdTot=       0 NPtTot=           0 NUsed=           0 NTot=          32
 NSgBfM=   161   161   161   161   161 MxSgAt=     7 MxSgA2=     7.
 Leave Link  302 at Wed Jun 19 17:50:40 2019, MaxMem=  4294967296 cpu:               1.9 elap:               0.2
 (Enter /opt/gaussian/gdv-20170407-i10+/gdv/l303.exe)
 DipDrv:  MaxL=1.
 Leave Link  303 at Wed Jun 19 17:50:40 2019, MaxMem=  4294967296 cpu:               0.3 elap:               0.1
 (Enter /opt/gaussian/gdv-20170407-i10+/gdv/l401.exe)
 ExpMin= 7.40D-03 ExpMax= 2.86D+03 ExpMxC= 4.28D+02 IAcc=3 IRadAn=         5 AccDes= 0.00D+00
 Harris functional with IExCor=  402 and IRadAn=       5 diagonalized for initial guess.
 HarFok:  IExCor=  402 AccDes= 0.00D+00 IRadAn=         5 IDoV= 1 UseB2=F ITyADJ=14
 ICtDFT=  3500011 ScaDFX=  1.000000  1.000000  1.000000  1.000000
 FoFCou: FMM=F IPFlag=           0 FMFlag=      100000 FMFlg1=           0
         NFxFlg=           0 DoJE=T BraDBF=F KetDBF=T FulRan=T
         wScrn=  0.000000 ICntrl=       500 IOpCl=  0 I1Cent=   200000004 NGrid=           0
         NMat0=    1 NMatS0=      1 NMatT0=    0 NMatD0=    1 NMtDS0=    0 NMtDT0=    0
 Petite list used in FoFCou.
 Harris En= -156.713453447292    
 JPrj=0 DoOrth=F DoCkMO=F.
 Initial guess orbital symmetries:
 Alpha Orbitals:
       Occupied  (A) (B) (B) (A) (B) (A) (A) (A) (B) (A) (B) (A)
                 (A) (B) (A) (B) (B) (A)
       Virtual   (B) (B) (A) (A) (A) (B) (B) (A) (A) (B) (A) (B)
                 (B) (A) (A) (B) (B) (A) (A) (B) (A) (B) (B) (A)
                 (B) (B) (A) (A) (B) (A) (B) (A) (B) (A) (B) (A)
                 (B) (A) (B) (A) (B) (A) (B) (B) (A) (B) (A) (A)
                 (A) (B) (B) (A) (A) (B) (A) (B) (B) (A) (B) (A)
                 (B) (A) (B) (B) (A) (B) (A) (B) (A) (A) (A) (B)
                 (B) (A) (B) (A) (B) (A) (B) (A) (B) (A) (B) (B)
                 (A) (A) (B) (A) (B) (A) (B) (A) (B) (A) (B) (A)
                 (B) (A) (B) (B) (A) (A) (B) (A) (A) (B) (B) (A)
                 (B) (B) (A) (A) (B) (A) (A) (B) (B) (A) (B) (A)
                 (A) (B) (A) (B) (B) (A) (B) (B) (A) (A) (A) (B)
                 (B) (A) (A) (B)
 Beta  Orbitals:
       Occupied  (A) (B) (B) (A) (B) (A) (A) (A) (B) (A) (B) (A)
                 (A) (B) (A) (B)
       Virtual   (B) (A) (B) (B) (A) (A) (A) (B) (B) (A) (A) (B)
                 (A) (B) (B) (A) (A) (B) (B) (A) (A) (B) (A) (B)
                 (B) (A) (B) (B) (A) (A) (B) (A) (B) (A) (B) (A)
                 (B) (A) (B) (A) (B) (A) (B) (A) (B) (B) (A) (B)
                 (A) (A) (A) (B) (B) (A) (A) (B) (A) (B) (B) (A)
                 (B) (A) (B) (A) (B) (B) (A) (B) (A) (B) (A) (A)
                 (A) (B) (B) (A) (B) (A) (B) (A) (B) (A) (B) (A)
                 (B) (B) (A) (A) (B) (A) (B) (A) (B) (A) (B) (A)
                 (B) (A) (B) (A) (B) (B) (A) (A) (B) (A) (A) (B)
                 (B) (A) (B) (B) (A) (A) (B) (A) (A) (B) (B) (A)
                 (B) (A) (A) (B) (A) (B) (B) (A) (B) (B) (A) (A)
                 (A) (B) (B) (A) (A) (B)
 The electronic state of the initial guess is 3-B.
 Initial guess <Sx>= 0.0000 <Sy>= 0.0000 <Sz>= 1.0000 <S**2>= 2.0000 S= 1.0000
 Leave Link  401 at Wed Jun 19 17:50:40 2019, MaxMem=  4294967296 cpu:               3.8 elap:               0.3
 (Enter /opt/gaussian/gdv-20170407-i10+/gdv/l502.exe)
 Keep R1 and R2 ints in memory in symmetry-blocked form, NReq=106882191.
 FoFCou: FMM=F IPFlag=           0 FMFlag=           0 FMFlg1=           0
         NFxFlg=           0 DoJE=F BraDBF=F KetDBF=F FulRan=T
         wScrn=  0.000000 ICntrl=       600 IOpCl=  0 I1Cent=           0 NGrid=           0
         NMat0=    1 NMatS0=  11935 NMatT0=    0 NMatD0=    1 NMtDS0=    0 NMtDT0=    0
 Petite list used in FoFCou.
 UHF open shell SCF:
 Using DIIS extrapolation, IDIIS=  1040.
 NGot=  4294967296 LenX=  4223649334 LenY=  4223622972
 Requested convergence on RMS density matrix=1.00D-08 within 512 cycles.
 Requested convergence on MAX density matrix=1.00D-06.
 Requested convergence on             energy=1.00D-06.
 No special actions if energy rises.

 Cycle   1  Pass 1  IDiag  1:
 E= -156.118110087938    
 DIIS: error= 5.51D-02 at cycle   1 NSaved=   1.
 NSaved= 1 IEnMin= 1 EnMin= -156.118110087938     IErMin= 1 ErrMin= 5.51D-02
 ErrMax= 5.51D-02  0.00D+00 EMaxC= 1.00D-01 BMatC= 9.30D-01 BMatP= 9.30D-01
 IDIUse=3 WtCom= 4.49D-01 WtEn= 5.51D-01
 Coeff-Com:  0.100D+01
 Coeff-En:   0.100D+01
 Coeff:      0.100D+01
 Gap=     0.206 Goal=   None    Shift=    0.000
 Gap=     0.028 Goal=   None    Shift=    0.000
 GapD=    0.028 DampG=0.250 DampE=0.500 DampFc=0.2500 IDamp=-1.
 Damping current iteration by 2.50D-01
 RMSDP=4.08D+00 MaxDP=2.79D+02              OVMax= 9.98D-01

 Cycle   2  Pass 1  IDiag  1:
 E= -156.017983792494     Delta-E=        0.100126295444 Rises=F Damp=T
 DIIS: error= 1.31D-02 at cycle   2 NSaved=   2.
 NSaved= 2 IEnMin= 1 EnMin= -156.118110087938     IErMin= 2 ErrMin= 1.31D-02
 ErrMax= 1.31D-02  0.00D+00 EMaxC= 1.00D-01 BMatC= 8.81D-02 BMatP= 9.30D-01
 IDIUse=3 WtCom= 8.69D-01 WtEn= 1.31D-01
 Coeff-Com: -0.164D+00 0.116D+01
 Coeff-En:   0.629D+00 0.371D+00
 Coeff:     -0.605D-01 0.106D+01
 Gap=    -0.116 Goal=   None    Shift=    0.000
 Gap=     0.047 Goal=   None    Shift=    0.000
 RMSDP=1.02D+00 MaxDP=6.99D+01 DE= 1.00D-01 OVMax= 9.09D-01

 Cycle   3  Pass 1  IDiag  1:
 E= -156.394122563567     Delta-E=       -0.376138771073 Rises=F Damp=F
 DIIS: error= 3.04D-02 at cycle   3 NSaved=   3.
 NSaved= 3 IEnMin= 3 EnMin= -156.394122563567     IErMin= 2 ErrMin= 1.31D-02
 ErrMax= 3.04D-02  0.00D+00 EMaxC= 1.00D-01 BMatC= 1.82D-01 BMatP= 8.81D-02
 IDIUse=2 WtCom= 0.00D+00 WtEn= 1.00D+00
 Coeff-En:   0.000D+00 0.000D+00 0.100D+01
 Coeff:      0.000D+00 0.000D+00 0.100D+01
 Gap=     0.130 Goal=   None    Shift=    0.000
 Gap=     0.073 Goal=   None    Shift=    0.000
 RMSDP=4.40D-01 MaxDP=2.81D+01 DE=-3.76D-01 OVMax= 9.96D-01

 Cycle   4  Pass 1  IDiag  1:
 E= -155.929293834581     Delta-E=        0.464828728986 Rises=F Damp=F
 DIIS: error= 8.19D-02 at cycle   4 NSaved=   4.
 NSaved= 4 IEnMin= 3 EnMin= -156.394122563567     IErMin= 2 ErrMin= 1.31D-02
 ErrMax= 8.19D-02  0.00D+00 EMaxC= 1.00D-01 BMatC= 1.12D+00 BMatP= 8.81D-02
 IDIUse=2 WtCom= 0.00D+00 WtEn= 1.00D+00
 Coeff-En:   0.000D+00 0.000D+00 0.829D+00 0.171D+00
 Coeff:      0.000D+00 0.000D+00 0.829D+00 0.171D+00
 Gap=    -0.049 Goal=   None    Shift=    0.000
 Gap=     0.072 Goal=   None    Shift=    0.000
 RMSDP=4.37D-01 MaxDP=2.79D+01 DE= 4.65D-01 OVMax= 9.79D-01

 Cycle   5  Pass 1  IDiag  1:
 E= -156.460825946752     Delta-E=       -0.531532112171 Rises=F Damp=F
 DIIS: error= 1.92D-02 at cycle   5 NSaved=   5.
 NSaved= 5 IEnMin= 5 EnMin= -156.460825946752     IErMin= 2 ErrMin= 1.31D-02
 ErrMax= 1.92D-02  0.00D+00 EMaxC= 1.00D-01 BMatC= 7.27D-02 BMatP= 8.81D-02
 IDIUse=3 WtCom= 8.08D-01 WtEn= 1.92D-01
 Coeff-Com: -0.505D-01 0.137D+00 0.351D+00-0.430D-01 0.606D+00
 Coeff-En:   0.000D+00 0.000D+00 0.223D+00 0.000D+00 0.777D+00
 Coeff:     -0.408D-01 0.110D+00 0.326D+00-0.348D-01 0.639D+00
 Gap=     0.089 Goal=   None    Shift=    0.000
 Gap=     0.090 Goal=   None    Shift=    0.000
 RMSDP=6.11D-03 MaxDP=2.94D-01 DE=-5.32D-01 OVMax= 7.94D-02

 Cycle   6  Pass 1  IDiag  1:
 E= -156.485170336234     Delta-E=       -0.024344389482 Rises=F Damp=F
 DIIS: error= 5.37D-03 at cycle   6 NSaved=   6.
 NSaved= 6 IEnMin= 6 EnMin= -156.485170336234     IErMin= 6 ErrMin= 5.37D-03
 ErrMax= 5.37D-03  0.00D+00 EMaxC= 1.00D-01 BMatC= 6.38D-03 BMatP= 7.27D-02
 IDIUse=3 WtCom= 9.46D-01 WtEn= 5.37D-02
 Coeff-Com: -0.189D-02 0.274D-01 0.390D-01-0.906D-02 0.282D+00 0.663D+00
 Coeff-En:   0.000D+00 0.000D+00 0.000D+00 0.000D+00 0.685D-01 0.932D+00
 Coeff:     -0.179D-02 0.259D-01 0.369D-01-0.857D-02 0.270D+00 0.677D+00
 Gap=     0.080 Goal=   None    Shift=    0.000
 Gap=     0.085 Goal=   None    Shift=    0.000
 RMSDP=2.26D-03 MaxDP=9.95D-02 DE=-2.43D-02 OVMax= 2.27D-02

 Cycle   7  Pass 1  IDiag  1:
 E= -156.487583066766     Delta-E=       -0.002412730532 Rises=F Damp=F
 DIIS: error= 8.84D-04 at cycle   7 NSaved=   7.
 NSaved= 7 IEnMin= 7 EnMin= -156.487583066766     IErMin= 7 ErrMin= 8.84D-04
 ErrMax= 8.84D-04  0.00D+00 EMaxC= 1.00D-01 BMatC= 3.44D-04 BMatP= 6.38D-03
 IDIUse=3 WtCom= 9.91D-01 WtEn= 8.84D-03
 Coeff-Com: -0.192D-02 0.905D-02-0.224D-01-0.146D-02 0.624D-01 0.357D+00
 Coeff-Com:  0.597D+00
 Coeff-En:   0.000D+00 0.000D+00 0.000D+00 0.000D+00 0.000D+00 0.000D+00
 Coeff-En:   0.100D+01
 Coeff:     -0.191D-02 0.897D-02-0.222D-01-0.144D-02 0.619D-01 0.354D+00
 Coeff:      0.600D+00
 Gap=     0.078 Goal=   None    Shift=    0.000
 Gap=     0.085 Goal=   None    Shift=    0.000
 RMSDP=6.24D-04 MaxDP=3.36D-02 DE=-2.41D-03 OVMax= 6.15D-03

 Cycle   8  Pass 1  IDiag  1:
 E= -156.487722715479     Delta-E=       -0.000139648712 Rises=F Damp=F
 DIIS: error= 2.44D-04 at cycle   8 NSaved=   8.
 NSaved= 8 IEnMin= 8 EnMin= -156.487722715479     IErMin= 8 ErrMin= 2.44D-04
 ErrMax= 2.44D-04  0.00D+00 EMaxC= 1.00D-01 BMatC= 3.59D-05 BMatP= 3.44D-04
 IDIUse=3 WtCom= 9.98D-01 WtEn= 2.44D-03
 Coeff-Com: -0.215D-02 0.260D-02-0.115D-01 0.533D-03-0.762D-02 0.402D-01
 Coeff-Com:  0.239D+00 0.739D+00
 Coeff-En:   0.000D+00 0.000D+00 0.000D+00 0.000D+00 0.000D+00 0.000D+00
 Coeff-En:   0.000D+00 0.100D+01
 Coeff:     -0.214D-02 0.259D-02-0.114D-01 0.532D-03-0.760D-02 0.401D-01
 Coeff:      0.238D+00 0.740D+00
 Gap=     0.077 Goal=   None    Shift=    0.000
 Gap=     0.085 Goal=   None    Shift=    0.000
 RMSDP=3.96D-04 MaxDP=2.00D-02 DE=-1.40D-04 OVMax= 3.46D-03

 Cycle   9  Pass 1  IDiag  1:
 E= -156.487741764055     Delta-E=       -0.000019048577 Rises=F Damp=F
 DIIS: error= 1.09D-04 at cycle   9 NSaved=   9.
 NSaved= 9 IEnMin= 9 EnMin= -156.487741764055     IErMin= 9 ErrMin= 1.09D-04
 ErrMax= 1.09D-04  0.00D+00 EMaxC= 1.00D-01 BMatC= 7.20D-06 BMatP= 3.59D-05
 IDIUse=3 WtCom= 9.99D-01 WtEn= 1.09D-03
 Coeff-Com: -0.115D-02 0.130D-02-0.249D-02 0.227D-03-0.914D-02-0.306D-01
 Coeff-Com:  0.222D-01 0.341D+00 0.678D+00
 Coeff-En:   0.000D+00 0.000D+00 0.000D+00 0.000D+00 0.000D+00 0.000D+00
 Coeff-En:   0.000D+00 0.000D+00 0.100D+01
 Coeff:     -0.115D-02 0.129D-02-0.248D-02 0.227D-03-0.913D-02-0.305D-01
 Coeff:      0.221D-01 0.341D+00 0.679D+00
 Gap=     0.077 Goal=   None    Shift=    0.000
 Gap=     0.086 Goal=   None    Shift=    0.000
 RMSDP=1.88D-04 MaxDP=9.60D-03 DE=-1.90D-05 OVMax= 1.69D-03

 Cycle  10  Pass 1  IDiag  1:
 E= -156.487745826721     Delta-E=       -0.000004062666 Rises=F Damp=F
 DIIS: error= 5.36D-05 at cycle  10 NSaved=  10.
 NSaved=10 IEnMin=10 EnMin= -156.487745826721     IErMin=10 ErrMin= 5.36D-05
 ErrMax= 5.36D-05  0.00D+00 EMaxC= 1.00D-01 BMatC= 1.06D-06 BMatP= 7.20D-06
 IDIUse=1 WtCom= 1.00D+00 WtEn= 0.00D+00
 Coeff-Com:  0.441D-03-0.450D-03 0.105D-02-0.239D-04 0.120D-02-0.151D-01
 Coeff-Com: -0.621D-01-0.104D+00 0.163D+00 0.102D+01
 Coeff:      0.441D-03-0.450D-03 0.105D-02-0.239D-04 0.120D-02-0.151D-01
 Coeff:     -0.621D-01-0.104D+00 0.163D+00 0.102D+01
 Gap=     0.077 Goal=   None    Shift=    0.000
 Gap=     0.086 Goal=   None    Shift=    0.000
 RMSDP=1.55D-04 MaxDP=7.90D-03 DE=-4.06D-06 OVMax= 2.15D-03

 Cycle  11  Pass 1  IDiag  1:
 E= -156.487747261058     Delta-E=       -0.000001434337 Rises=F Damp=F
 DIIS: error= 2.41D-05 at cycle  11 NSaved=  11.
 NSaved=11 IEnMin=11 EnMin= -156.487747261058     IErMin=11 ErrMin= 2.41D-05
 ErrMax= 2.41D-05  0.00D+00 EMaxC= 1.00D-01 BMatC= 1.61D-07 BMatP= 1.06D-06
 IDIUse=1 WtCom= 1.00D+00 WtEn= 0.00D+00
 Coeff-Com: -0.916D-04 0.156D-03 0.365D-03-0.546D-04 0.201D-03 0.103D-01
 Coeff-Com:  0.139D-01-0.123D-01-0.162D+00-0.240D+00 0.139D+01
 Coeff:     -0.916D-04 0.156D-03 0.365D-03-0.546D-04 0.201D-03 0.103D-01
 Coeff:      0.139D-01-0.123D-01-0.162D+00-0.240D+00 0.139D+01
 Gap=     0.077 Goal=   None    Shift=    0.000
 Gap=     0.086 Goal=   None    Shift=    0.000
 RMSDP=3.42D-05 MaxDP=1.54D-03 DE=-1.43D-06 OVMax= 1.32D-03

 Cycle  12  Pass 1  IDiag  1:
 E= -156.487747535896     Delta-E=       -0.000000274838 Rises=F Damp=F
 DIIS: error= 6.01D-06 at cycle  12 NSaved=  12.
 NSaved=12 IEnMin=12 EnMin= -156.487747535896     IErMin=12 ErrMin= 6.01D-06
 ErrMax= 6.01D-06  0.00D+00 EMaxC= 1.00D-01 BMatC= 9.57D-09 BMatP= 1.61D-07
 IDIUse=1 WtCom= 1.00D+00 WtEn= 0.00D+00
 Coeff-Com: -0.480D-04 0.369D-04-0.225D-03 0.167D-04 0.806D-05 0.964D-03
 Coeff-Com: -0.178D-03-0.248D-02 0.514D-02-0.288D-01-0.160D+00 0.119D+01
 Coeff:     -0.480D-04 0.369D-04-0.225D-03 0.167D-04 0.806D-05 0.964D-03
 Coeff:     -0.178D-03-0.248D-02 0.514D-02-0.288D-01-0.160D+00 0.119D+01
 Gap=     0.077 Goal=   None    Shift=    0.000
 Gap=     0.086 Goal=   None    Shift=    0.000
 RMSDP=1.25D-05 MaxDP=7.32D-04 DE=-2.75D-07 OVMax= 4.73D-04

 Cycle  13  Pass 1  IDiag  1:
 E= -156.487747562958     Delta-E=       -0.000000027062 Rises=F Damp=F
 DIIS: error= 2.79D-06 at cycle  13 NSaved=  13.
 NSaved=13 IEnMin=13 EnMin= -156.487747562958     IErMin=13 ErrMin= 2.79D-06
 ErrMax= 2.79D-06  0.00D+00 EMaxC= 1.00D-01 BMatC= 1.55D-09 BMatP= 9.57D-09
 IDIUse=1 WtCom= 1.00D+00 WtEn= 0.00D+00
 Coeff-Com:  0.417D-04-0.418D-04-0.779D-04 0.808D-05 0.999D-04-0.138D-02
 Coeff-Com: -0.191D-02 0.181D-02 0.206D-01 0.426D-01-0.183D+00-0.186D+00
 Coeff-Com:  0.131D+01
 Coeff:      0.417D-04-0.418D-04-0.779D-04 0.808D-05 0.999D-04-0.138D-02
 Coeff:     -0.191D-02 0.181D-02 0.206D-01 0.426D-01-0.183D+00-0.186D+00
 Coeff:      0.131D+01
 Gap=     0.077 Goal=   None    Shift=    0.000
 Gap=     0.086 Goal=   None    Shift=    0.000
 RMSDP=3.43D-06 MaxDP=1.73D-04 DE=-2.71D-08 OVMax= 2.19D-04

 Cycle  14  Pass 1  IDiag  1:
 E= -156.487747567665     Delta-E=       -0.000000004707 Rises=F Damp=F
 DIIS: error= 1.53D-06 at cycle  14 NSaved=  14.
 NSaved=14 IEnMin=14 EnMin= -156.487747567665     IErMin=14 ErrMin= 1.53D-06
 ErrMax= 1.53D-06  0.00D+00 EMaxC= 1.00D-01 BMatC= 5.25D-10 BMatP= 1.55D-09
 IDIUse=1 WtCom= 1.00D+00 WtEn= 0.00D+00
 Coeff-Com: -0.414D-05 0.240D-05 0.570D-04-0.466D-05-0.550D-04-0.262D-04
 Coeff-Com:  0.593D-03 0.113D-02-0.183D-02-0.214D-02 0.179D-01-0.292D-01
 Coeff-Com: -0.275D+00 0.129D+01
 Coeff:     -0.414D-05 0.240D-05 0.570D-04-0.466D-05-0.550D-04-0.262D-04
 Coeff:      0.593D-03 0.113D-02-0.183D-02-0.214D-02 0.179D-01-0.292D-01
 Coeff:     -0.275D+00 0.129D+01
 Gap=     0.077 Goal=   None    Shift=    0.000
 Gap=     0.086 Goal=   None    Shift=    0.000
 RMSDP=1.16D-06 MaxDP=4.23D-05 DE=-4.71D-09 OVMax= 6.74D-05

 Cycle  15  Pass 1  IDiag  1:
 E= -156.487747568460     Delta-E=       -0.000000000795 Rises=F Damp=F
 DIIS: error= 3.84D-07 at cycle  15 NSaved=  15.
 NSaved=15 IEnMin=15 EnMin= -156.487747568460     IErMin=15 ErrMin= 3.84D-07
 ErrMax= 3.84D-07  0.00D+00 EMaxC= 1.00D-01 BMatC= 2.57D-11 BMatP= 5.25D-10
 IDIUse=1 WtCom= 1.00D+00 WtEn= 0.00D+00
 Coeff-Com: -0.619D-05 0.565D-05 0.448D-05-0.608D-06-0.751D-05 0.999D-04
 Coeff-Com: -0.402D-04-0.596D-03-0.140D-02-0.368D-03 0.123D-01 0.999D-03
 Coeff-Com: -0.102D+00-0.765D-01 0.117D+01
 Coeff:     -0.619D-05 0.565D-05 0.448D-05-0.608D-06-0.751D-05 0.999D-04
 Coeff:     -0.402D-04-0.596D-03-0.140D-02-0.368D-03 0.123D-01 0.999D-03
 Coeff:     -0.102D+00-0.765D-01 0.117D+01
 Gap=     0.077 Goal=   None    Shift=    0.000
 Gap=     0.086 Goal=   None    Shift=    0.000
 RMSDP=4.94D-07 MaxDP=1.98D-05 DE=-7.95D-10 OVMax= 2.67D-05

 Cycle  16  Pass 1  IDiag  1:
 E= -156.487747568541     Delta-E=       -0.000000000081 Rises=F Damp=F
 DIIS: error= 1.76D-07 at cycle  16 NSaved=  16.
 NSaved=16 IEnMin=16 EnMin= -156.487747568541     IErMin=16 ErrMin= 1.76D-07
 ErrMax= 1.76D-07  0.00D+00 EMaxC= 1.00D-01 BMatC= 1.03D-11 BMatP= 2.57D-11
 IDIUse=1 WtCom= 1.00D+00 WtEn= 0.00D+00
 Coeff-Com:  0.177D-05-0.388D-06-0.790D-05 0.290D-06 0.103D-04 0.182D-04
 Coeff-Com: -0.417D-04-0.734D-04-0.210D-03-0.243D-03 0.217D-02-0.540D-02
 Coeff-Com:  0.367D-01-0.598D-01-0.349D+00 0.138D+01
 Coeff:      0.177D-05-0.388D-06-0.790D-05 0.290D-06 0.103D-04 0.182D-04
 Coeff:     -0.417D-04-0.734D-04-0.210D-03-0.243D-03 0.217D-02-0.540D-02
 Coeff:      0.367D-01-0.598D-01-0.349D+00 0.138D+01
 Gap=     0.077 Goal=   None    Shift=    0.000
 Gap=     0.086 Goal=   None    Shift=    0.000
 RMSDP=2.82D-07 MaxDP=1.35D-05 DE=-8.11D-11 OVMax= 8.68D-06

 Cycle  17  Pass 1  IDiag  1:
 E= -156.487747568557     Delta-E=       -0.000000000016 Rises=F Damp=F
 DIIS: error= 5.82D-08 at cycle  17 NSaved=  17.
 NSaved=17 IEnMin=17 EnMin= -156.487747568557     IErMin=17 ErrMin= 5.82D-08
 ErrMax= 5.82D-08  0.00D+00 EMaxC= 1.00D-01 BMatC= 5.73D-13 BMatP= 1.03D-11
 IDIUse=1 WtCom= 1.00D+00 WtEn= 0.00D+00
 Coeff-Com:  0.552D-07-0.182D-06 0.189D-05 0.236D-08-0.148D-05-0.902D-05
 Coeff-Com:  0.261D-04 0.115D-03 0.115D-03-0.254D-03-0.166D-02 0.600D-02
 Coeff-Com: -0.279D-02 0.150D-01-0.630D-01-0.324D+00 0.137D+01
 Coeff:      0.552D-07-0.182D-06 0.189D-05 0.236D-08-0.148D-05-0.902D-05
 Coeff:      0.261D-04 0.115D-03 0.115D-03-0.254D-03-0.166D-02 0.600D-02
 Coeff:     -0.279D-02 0.150D-01-0.630D-01-0.324D+00 0.137D+01
 Gap=     0.077 Goal=   None    Shift=    0.000
 Gap=     0.086 Goal=   None    Shift=    0.000
 RMSDP=5.21D-08 MaxDP=1.75D-06 DE=-1.57D-11 OVMax= 3.10D-06

 Cycle  18  Pass 1  IDiag  1:
 E= -156.487747568559     Delta-E=       -0.000000000002 Rises=F Damp=F
 DIIS: error= 1.81D-08 at cycle  18 NSaved=  18.
 NSaved=18 IEnMin=18 EnMin= -156.487747568559     IErMin=18 ErrMin= 1.81D-08
 ErrMax= 1.81D-08  0.00D+00 EMaxC= 1.00D-01 BMatC= 7.99D-14 BMatP= 5.73D-13
 IDIUse=1 WtCom= 1.00D+00 WtEn= 0.00D+00
 Coeff-Com: -0.302D-06 0.181D-06 0.881D-06-0.423D-07-0.150D-05-0.541D-05
 Coeff-Com: -0.204D-05 0.165D-04 0.851D-04 0.121D-03-0.867D-03 0.832D-03
 Coeff-Com: -0.340D-02 0.615D-02 0.392D-01-0.153D+00-0.201D-01 0.113D+01
 Coeff:     -0.302D-06 0.181D-06 0.881D-06-0.423D-07-0.150D-05-0.541D-05
 Coeff:     -0.204D-05 0.165D-04 0.851D-04 0.121D-03-0.867D-03 0.832D-03
 Coeff:     -0.340D-02 0.615D-02 0.392D-01-0.153D+00-0.201D-01 0.113D+01
 Gap=     0.077 Goal=   None    Shift=    0.000
 Gap=     0.086 Goal=   None    Shift=    0.000
 RMSDP=4.28D-08 MaxDP=2.42D-06 DE=-1.82D-12 OVMax= 8.18D-07

 Cycle  19  Pass 1  IDiag  1:
 E= -156.487747568559     Delta-E=       -0.000000000000 Rises=F Damp=F
 DIIS: error= 7.48D-09 at cycle  19 NSaved=  19.
 NSaved=19 IEnMin=19 EnMin= -156.487747568559     IErMin=19 ErrMin= 7.48D-09
 ErrMax= 7.48D-09  0.00D+00 EMaxC= 1.00D-01 BMatC= 1.38D-14 BMatP= 7.99D-14
 IDIUse=1 WtCom= 1.00D+00 WtEn= 0.00D+00
 Coeff-Com:  0.397D-07 0.471D-08-0.280D-06 0.158D-08 0.434D-06 0.204D-05
 Coeff-Com: -0.278D-05-0.202D-04-0.364D-04 0.138D-04 0.482D-03-0.104D-02
 Coeff-Com:  0.302D-03 0.118D-03-0.279D-02 0.607D-01-0.154D+00-0.137D+00
 Coeff-Com:  0.123D+01
 Coeff:      0.397D-07 0.471D-08-0.280D-06 0.158D-08 0.434D-06 0.204D-05
 Coeff:     -0.278D-05-0.202D-04-0.364D-04 0.138D-04 0.482D-03-0.104D-02
 Coeff:      0.302D-03 0.118D-03-0.279D-02 0.607D-01-0.154D+00-0.137D+00
 Coeff:      0.123D+01
 Gap=     0.077 Goal=   None    Shift=    0.000
 Gap=     0.086 Goal=   None    Shift=    0.000
 RMSDP=1.30D-08 MaxDP=6.62D-07 DE=-1.71D-13 OVMax= 1.58D-07

 Cycle  20  Pass 1  IDiag  1:
 E= -156.487747568559     Delta-E=        0.000000000000 Rises=F Damp=F
 DIIS: error= 7.94D-10 at cycle  20 NSaved=  20.
 NSaved=20 IEnMin=19 EnMin= -156.487747568559     IErMin=20 ErrMin= 7.94D-10
 ErrMax= 7.94D-10  0.00D+00 EMaxC= 1.00D-01 BMatC= 2.24D-16 BMatP= 1.38D-14
 IDIUse=1 WtCom= 1.00D+00 WtEn= 0.00D+00
 Large coefficients: NSaved= 20 BigCof=    0.00 CofMax=   10.00 Det=-1.30D-15
 Inversion failed.  Reducing to 19 matrices.
 Large coefficients: NSaved= 19 BigCof=    0.00 CofMax=   10.00 Det=-9.08D-16
 Inversion failed.  Reducing to 18 matrices.
 Large coefficients: NSaved= 18 BigCof=    0.00 CofMax=   10.00 Det=-9.09D-16
 Inversion failed.  Reducing to 17 matrices.
 Large coefficients: NSaved= 17 BigCof=    0.00 CofMax=   10.00 Det=-1.01D-15
 Inversion failed.  Reducing to 16 matrices.
 Large coefficients: NSaved= 16 BigCof=    0.00 CofMax=   10.00 Det=-1.12D-15
 Inversion failed.  Reducing to 15 matrices.
 Coeff-Com:  0.673D-07 0.724D-06 0.105D-05-0.206D-05-0.102D-04 0.171D-04
 Coeff-Com:  0.289D-04 0.699D-04-0.143D-03-0.141D-02 0.198D-02 0.137D-01
 Coeff-Com: -0.554D-01-0.115D+00 0.116D+01
 Coeff:      0.673D-07 0.724D-06 0.105D-05-0.206D-05-0.102D-04 0.171D-04
 Coeff:      0.289D-04 0.699D-04-0.143D-03-0.141D-02 0.198D-02 0.137D-01
 Coeff:     -0.554D-01-0.115D+00 0.116D+01
 Gap=     0.077 Goal=   None    Shift=    0.000
 Gap=     0.086 Goal=   None    Shift=    0.000
 RMSDP=2.74D-09 MaxDP=1.27D-07 DE= 2.27D-13 OVMax= 2.54D-08

 SCF Done:  E(UB3LYP) =  -156.487747569     A.U. after   20 cycles
            NFock= 20  Conv=0.27D-08     -V/T= 2.0057
 <Sx>= 0.0000 <Sy>= 0.0000 <Sz>= 1.0000 <S**2>= 2.0209 S= 1.0070
 <L.S>= 0.000000000000E+00
 KE= 1.555994098887D+02 PE=-6.041641101164D+02 EE= 1.735202669885D+02
 Annihilation of the first spin contaminant:
 S**2 before annihilation     2.0209,   after     2.0002
 Leave Link  502 at Wed Jun 19 17:50:47 2019, MaxMem=  4294967296 cpu:              73.1 elap:               7.1
 (Enter /opt/gaussian/gdv-20170407-i10+/gdv/l601.exe)
 Copying SCF densities to generalized density rwf, IOpCl= 1 IROHF=0.

 **********************************************************************

            Population analysis using the SCF Density.

 **********************************************************************

 Orbital symmetries:
 Alpha Orbitals:
       Occupied  (B) (A) (A) (B) (B) (A) (A) (A) (B) (A) (B) (A)
                 (A) (B) (A) (B) (B) (A)
       Virtual   (A) (B) (B) (A) (A) (B) (B) (B) (A) (B) (A) (A)
                 (A) (B) (B) (A) (A) (B) (A) (B) (B) (A) (B) (A)
                 (B) (A) (A) (B) (A) (B) (B) (A) (B) (A) (A) (B)
                 (B) (A) (B) (B) (A) (A) (B) (B) (A) (B) (A) (A)
                 (A) (B) (B) (A) (B) (B) (A) (A) (B) (B) (A) (B)
                 (A) (B) (A) (B) (A) (B) (A) (A) (B) (A) (B) (B)
                 (A) (B) (A) (A) (B) (A) (A) (B) (B) (A) (B) (B)
                 (A) (A) (A) (B) (B) (A) (B) (A) (B) (A) (B) (B)
                 (A) (A) (B) (A) (B) (A) (B) (A) (A) (B) (B) (A)
                 (B) (B) (A) (A) (B) (A) (B) (A) (B) (A) (B) (A)
                 (B) (A) (A) (B) (B) (A) (B) (B) (A) (A) (A) (B)
                 (B) (A) (A) (B)
 Beta  Orbitals:
       Occupied  (A) (B) (B) (A) (B) (A) (A) (A) (B) (A) (B) (A)
                 (A) (B) (A) (B)
       Virtual   (B) (A) (B) (B) (A) (A) (A) (B) (B) (B) (B) (A)
                 (A) (A) (A) (B) (B) (A) (B) (A) (A) (B) (B) (B)
                 (A) (A) (B) (A) (A) (B) (B) (A) (B) (B) (A) (A)
                 (A) (B) (B) (A) (B) (B) (A) (A) (B) (A) (B) (A)
                 (B) (A) (B) (A) (B) (B) (A) (B) (A) (A) (B) (B)
                 (A) (B) (A) (B) (A) (B) (A) (B) (A) (A) (B) (A)
                 (B) (B) (A) (B) (A) (A) (B) (A) (A) (B) (B) (A)
                 (B) (B) (A) (A) (B) (A) (B) (A) (B) (A) (B) (A)
                 (B) (B) (A) (B) (A) (B) (A) (A) (B) (A) (A) (B)
                 (B) (A) (B) (B) (A) (A) (B) (A) (B) (A) (B) (A)
                 (B) (A) (B) (A) (A) (B) (B) (A) (B) (B) (A) (A)
                 (A) (B) (B) (A) (A) (B)
 The electronic state is 3-B.
 Alpha  occ. eigenvalues --   -6.56314  -6.56313  -6.56153  -6.56125  -6.55129
 Alpha  occ. eigenvalues --   -6.55124  -1.86555  -0.50887  -0.39801  -0.25286
 Alpha  occ. eigenvalues --   -0.23169  -0.14173  -0.10694  -0.09893  -0.09761
 Alpha  occ. eigenvalues --   -0.05351  -0.03744  -0.01559
 Alpha virt. eigenvalues --    0.06130   0.07278   0.07388   0.08162   0.08400
 Alpha virt. eigenvalues --    0.08983   0.11326   0.12946   0.13649   0.13780
 Alpha virt. eigenvalues --    0.14330   0.14804   0.15188   0.15359   0.15837
 Alpha virt. eigenvalues --    0.16574   0.17320   0.17335   0.18138   0.18286
 Alpha virt. eigenvalues --    0.19773   0.20369   0.20514   0.21137   0.21226
 Alpha virt. eigenvalues --    0.22421   0.23121   0.23810   0.24334   0.24368
 Alpha virt. eigenvalues --    0.25044   0.26574   0.26680   0.26924   0.27898
 Alpha virt. eigenvalues --    0.28144   0.28928   0.29034   0.29745   0.30733
 Alpha virt. eigenvalues --    0.31143   0.36316   0.36943   0.42015   0.42142
 Alpha virt. eigenvalues --    0.44647   0.44992   0.46672   0.47804   0.48947
 Alpha virt. eigenvalues --    0.53542   0.54138   0.54164   0.54691   0.54916
 Alpha virt. eigenvalues --    0.55685   0.57738   0.57987   0.58638   0.60112
 Alpha virt. eigenvalues --    0.63082   0.63473   0.64382   0.65572   0.67187
 Alpha virt. eigenvalues --    0.67319   0.67923   0.72393   0.72559   0.76423
 Alpha virt. eigenvalues --    0.78271   0.78713   0.80036   0.83033   0.83543
 Alpha virt. eigenvalues --    0.84735   0.88227   0.89311   0.90920   0.92953
 Alpha virt. eigenvalues --    0.95325   0.97566   0.98727   1.12181   1.15113
 Alpha virt. eigenvalues --    1.18096   1.22594   1.22837   1.27370   1.31096
 Alpha virt. eigenvalues --    1.33288   1.36545   1.41074   1.43373   1.43567
 Alpha virt. eigenvalues --    1.50022   1.51222   1.53124   1.53599   1.56654
 Alpha virt. eigenvalues --    1.57331   1.64490   1.66658   1.69122   1.73331
 Alpha virt. eigenvalues --    1.74082   1.78840   1.85639   1.95223   1.99096
 Alpha virt. eigenvalues --    2.02007   2.06857   2.15959   2.17915   2.19448
 Alpha virt. eigenvalues --    2.20103   2.24173   2.28421   2.30601   2.40222
 Alpha virt. eigenvalues --    2.44156   2.47001   2.49516   2.50837   2.55920
 Alpha virt. eigenvalues --    2.72265   2.84790   2.90930   3.03695   4.07957
 Alpha virt. eigenvalues --   14.20356  14.80763  14.94305  15.10813  15.29174
 Alpha virt. eigenvalues --   15.34516
  Beta  occ. eigenvalues --   -6.56052  -6.56025  -6.55285  -6.55283  -6.54967
  Beta  occ. eigenvalues --   -6.54962  -1.86575  -0.50077  -0.38477  -0.23064
  Beta  occ. eigenvalues --   -0.22294  -0.13899  -0.09539  -0.07581  -0.07289
  Beta  occ. eigenvalues --   -0.03271
  Beta virt. eigenvalues --    0.05289   0.05908   0.07370   0.07501   0.07676
  Beta virt. eigenvalues --    0.08329   0.09462   0.09470   0.12182   0.13229
  Beta virt. eigenvalues --    0.14153   0.14296   0.14710   0.15283   0.15629
  Beta virt. eigenvalues --    0.15726   0.16153   0.16999   0.17477   0.17514
  Beta virt. eigenvalues --    0.18219   0.18507   0.19967   0.20611   0.20979
  Beta virt. eigenvalues --    0.21324   0.21482   0.22719   0.23278   0.23956
  Beta virt. eigenvalues --    0.24384   0.24800   0.25064   0.26822   0.26991
  Beta virt. eigenvalues --    0.27383   0.28107   0.28500   0.29522   0.29574
  Beta virt. eigenvalues --    0.30474   0.31774   0.32263   0.36479   0.38106
  Beta virt. eigenvalues --    0.42555   0.42976   0.45664   0.46561   0.47226
  Beta virt. eigenvalues --    0.49279   0.49627   0.53874   0.54555   0.54794
  Beta virt. eigenvalues --    0.54828   0.55366   0.56188   0.57988   0.58414
  Beta virt. eigenvalues --    0.59480   0.62174   0.63334   0.64506   0.65353
  Beta virt. eigenvalues --    0.66516   0.67674   0.67878   0.69375   0.72846
  Beta virt. eigenvalues --    0.73278   0.77862   0.79207   0.80641   0.80901
  Beta virt. eigenvalues --    0.83559   0.84395   0.85655   0.89023   0.89772
  Beta virt. eigenvalues --    0.92471   0.93620   0.95905   0.99109   0.99594
  Beta virt. eigenvalues --    1.14340   1.16203   1.19513   1.23669   1.23676
  Beta virt. eigenvalues --    1.28485   1.32838   1.35601   1.36903   1.43088
  Beta virt. eigenvalues --    1.44747   1.45408   1.51903   1.53193   1.53923
  Beta virt. eigenvalues --    1.54511   1.58137   1.58805   1.65400   1.68931
  Beta virt. eigenvalues --    1.71282   1.75329   1.76136   1.80046   1.87034
  Beta virt. eigenvalues --    1.96431   1.99712   2.02909   2.07402   2.16765
  Beta virt. eigenvalues --    2.18330   2.19961   2.20504   2.24309   2.29043
  Beta virt. eigenvalues --    2.31849   2.41619   2.44956   2.48171   2.51480
  Beta virt. eigenvalues --    2.53164   2.56581   2.72731   2.85424   2.91481
  Beta virt. eigenvalues --    3.04404   4.07961  14.20876  14.81606  14.94506
  Beta virt. eigenvalues --   15.11249  15.29890  15.35131
          Condensed to atoms (all electrons):
               1          2          3          4          5          6
     1  Li   2.365264   0.113211   0.113211   0.054375   0.138343   0.054375
     2  B    0.113211   4.894398   0.154551   0.232490   0.514436  -0.559085
     3  B    0.113211   0.154551   4.894398  -0.559085   0.073046   0.232490
     4  B    0.054375   0.232490  -0.559085   5.292418   0.214445   0.051079
     5  B    0.138343   0.514436   0.073046   0.214445   4.189395  -0.190588
     6  B    0.054375  -0.559085   0.232490   0.051079  -0.190588   5.292418
     7  B    0.138343   0.073046   0.514436  -0.190588   0.054182   0.214445
               7
     1  Li   0.138343
     2  B    0.073046
     3  B    0.514436
     4  B   -0.190588
     5  B    0.054182
     6  B    0.214445
     7  B    4.189395
          Atomic-Atomic Spin Densities.
               1          2          3          4          5          6
     1  Li  -0.019023  -0.002194  -0.002194   0.031734  -0.027133   0.031734
     2  B   -0.002194   0.825464   0.154107  -0.072700   0.025450  -0.086609
     3  B   -0.002194   0.154107   0.825464  -0.086609  -0.018846  -0.072700
     4  B    0.031734  -0.072700  -0.086609   0.061069  -0.109937   0.259543
     5  B   -0.027133   0.025450  -0.018846  -0.109937  -0.025460   0.112780
     6  B    0.031734  -0.086609  -0.072700   0.259543   0.112780   0.061069
     7  B   -0.027133  -0.018846   0.025450   0.112780   0.029696  -0.109937
               7
     1  Li  -0.027133
     2  B   -0.018846
     3  B    0.025450
     4  B    0.112780
     5  B    0.029696
     6  B   -0.109937
     7  B   -0.025460
 Mulliken charges and spin densities:
               1          2
     1  Li   0.022879  -0.014209
     2  B   -0.423047   0.824672
     3  B   -0.423047   0.824672
     4  B   -0.095133   0.195881
     5  B    0.006741  -0.013449
     6  B   -0.095133   0.195881
     7  B    0.006741  -0.013449
 Sum of Mulliken charges =  -1.00000   2.00000
 Mulliken charges and spin densities with hydrogens summed into heavy atoms:
               1          2
     1  Li   0.022879  -0.014209
     2  B   -0.423047   0.824672
     3  B   -0.423047   0.824672
     4  B   -0.095133   0.195881
     5  B    0.006741  -0.013449
     6  B   -0.095133   0.195881
     7  B    0.006741  -0.013449
 Electronic spatial extent (au):  <R**2>=            406.7706
 Charge=             -1.0000 electrons
 Dipole moment (field-independent basis, Debye):
    X=              0.0000    Y=              0.0000    Z=              3.2777  Tot=              3.2777
 Quadrupole moment (field-independent basis, Debye-Ang):
   XX=            -53.0251   YY=            -74.1560   ZZ=            -37.0620
   XY=             -2.4489   XZ=              0.0000   YZ=             -0.0000
 Traceless Quadrupole moment (field-independent basis, Debye-Ang):
   XX=              1.7226   YY=            -19.4083   ZZ=             17.6857
   XY=             -2.4489   XZ=              0.0000   YZ=             -0.0000
 Octapole moment (field-independent basis, Debye-Ang**2):
  XXX=              0.0000  YYY=              0.0000  ZZZ=             22.7139  XYY=             -0.0000
  XXY=              0.0000  XXZ=              1.5029  XZZ=              0.0000  YZZ=              0.0000
  YYZ=             -9.8995  XYZ=              0.6901
 Hexadecapole moment (field-independent basis, Debye-Ang**3):
 XXXX=           -249.0458 YYYY=           -831.4503 ZZZZ=           -111.2675 XXXY=            -29.0814
 XXXZ=             -0.0000 YYYX=            -32.2240 YYYZ=              0.0000 ZZZX=             -0.0000
 ZZZY=             -0.0000 XXYY=           -166.6443 XXZZ=            -63.9030 YYZZ=           -152.2941
 XXYZ=              0.0000 YYXZ=             -0.0000 ZZXY=            -10.1143
 N-N= 1.185566856706D+02 E-N=-6.041641100911D+02  KE= 1.555994098887D+02
 Symmetry A    KE= 8.214794049530D+01
 Symmetry B    KE= 7.345146939336D+01
 Symmetry A    SP= 1.000000000000D+00
 Symmetry B    SP= 1.000000000000D+00
                          Isotropic Fermi Contact Couplings
        Atom                 a.u.       MegaHertz       Gauss      10(-4) cm-1
     1  Li(7)             -0.00249      -2.15971      -0.77064      -0.72040
     2  B(11)              0.30158     216.28780      77.17687      72.14585
     3  B(11)              0.30158     216.28780      77.17687      72.14585
     4  B(11)              0.03809      27.31977       9.74837       9.11289
     5  B(11)              0.02455      17.60918       6.28339       5.87379
     6  B(11)              0.03809      27.31977       9.74837       9.11289
     7  B(11)              0.02455      17.60918       6.28339       5.87379
 --------------------------------------------------------
       Center         ----  Spin Dipole Couplings  ----
                      3XX-RR        3YY-RR        3ZZ-RR
 --------------------------------------------------------
     1   Atom       -0.010383      0.009192      0.001191
     2   Atom       -0.075794      0.220728     -0.144934
     3   Atom       -0.075794      0.220728     -0.144934
     4   Atom       -0.002775      0.033463     -0.030688
     5   Atom       -0.026320      0.075437     -0.049117
     6   Atom       -0.002775      0.033463     -0.030688
     7   Atom       -0.026320      0.075437     -0.049117
 --------------------------------------------------------
                        XY            XZ            YZ
 --------------------------------------------------------
     1   Atom       -0.000742      0.000000     -0.000000
     2   Atom       -0.159510     -0.013947      0.102063
     3   Atom       -0.159510      0.013947     -0.102063
     4   Atom       -0.067568     -0.046974      0.058829
     5   Atom       -0.029533     -0.008304      0.038048
     6   Atom       -0.067568      0.046974     -0.058829
     7   Atom       -0.029533      0.008304     -0.038048
 --------------------------------------------------------


 ---------------------------------------------------------------------------------
              Anisotropic Spin Dipole Couplings in Principal Axis System
 ---------------------------------------------------------------------------------

       Atom             a.u.   MegaHertz   Gauss  10(-4) cm-1        Axes

              Baa    -0.0104    -2.159    -0.770    -0.720  0.9993  0.0378 -0.0000
     1 Li(7)  Bbb     0.0012     0.247     0.088     0.082  0.0000  0.0000  1.0000
              Bcc     0.0092     1.912     0.682     0.638 -0.0378  0.9993 -0.0000
 
              Baa    -0.1852   -31.713   -11.316   -10.578 -0.4515 -0.3803  0.8071
     2 B(11)  Bbb    -0.1266   -21.678    -7.735    -7.231  0.8081  0.2093  0.5507
              Bcc     0.3118    53.391    19.051    17.809 -0.3784  0.9009  0.2128
 
              Baa    -0.1852   -31.713   -11.316   -10.578  0.4515  0.3803  0.8071
     3 B(11)  Bbb    -0.1266   -21.678    -7.735    -7.231  0.8081  0.2093 -0.5507
              Bcc     0.3118    53.391    19.051    17.809 -0.3784  0.9009 -0.2128
 
              Baa    -0.0678   -11.616    -4.145    -3.875  0.3454 -0.2882  0.8931
     4 B(11)  Bbb    -0.0545    -9.328    -3.329    -3.112  0.7611  0.6428 -0.0869
              Bcc     0.1223    20.944     7.473     6.986 -0.5491  0.7097  0.4414
 
              Baa    -0.0598   -10.242    -3.655    -3.416 -0.0001 -0.2708  0.9626
     5 B(11)  Bbb    -0.0341    -5.846    -2.086    -1.950  0.9690  0.2379  0.0671
              Bcc     0.0940    16.088     5.741     5.366 -0.2471  0.9328  0.2624
 
              Baa    -0.0678   -11.616    -4.145    -3.875 -0.3454  0.2882  0.8931
     6 B(11)  Bbb    -0.0545    -9.328    -3.329    -3.112  0.7611  0.6428  0.0869
              Bcc     0.1223    20.944     7.473     6.986 -0.5491  0.7097 -0.4414
 
              Baa    -0.0598   -10.242    -3.655    -3.416  0.0001  0.2708  0.9626
     7 B(11)  Bbb    -0.0341    -5.846    -2.086    -1.950  0.9690  0.2379 -0.0671
              Bcc     0.0940    16.088     5.741     5.366 -0.2471  0.9328 -0.2624
 

 ---------------------------------------------------------------------------------

 No NMR shielding tensors so no spin-rotation constants.
 Leave Link  601 at Wed Jun 19 17:50:47 2019, MaxMem=  4294967296 cpu:               2.7 elap:               0.3
 (Enter /opt/gaussian/gdv-20170407-i10+/gdv/l701.exe)
 ... and contract with generalized density number  0.
 Compute integral first derivatives.
 Leave Link  701 at Wed Jun 19 17:50:48 2019, MaxMem=  4294967296 cpu:               3.3 elap:               0.3
 (Enter /opt/gaussian/gdv-20170407-i10+/gdv/l702.exe)
 L702 exits ... SP integral derivatives will be done elsewhere.
 Leave Link  702 at Wed Jun 19 17:50:48 2019, MaxMem=  4294967296 cpu:               0.2 elap:               0.0
 (Enter /opt/gaussian/gdv-20170407-i10+/gdv/l703.exe)
 Integral derivatives from FoFJK, PRISM(SPDF).
 Compute integral first derivatives, UseDBF=F ICtDFT=           0.
 Calling FoFJK, ICntrl=      2127 FMM=F ISym2X=1 I1Cent= 0 IOpClX= 1 NMat=1 NMatS=1 NMatT=0.
 FoFJK:  IHMeth= 1 ICntrl=    2127 DoSepK=F KAlg= 0 I1Cent=           0 FoldK=F
 IRaf=         0 NMat=       1 IRICut=       1 DoRegI=T DoRafI=F ISym2E= 1 IDoP0=0 IntGTp=1.
 FoFCou: FMM=F IPFlag=           0 FMFlag=      100000 FMFlg1=         800
         NFxFlg=           0 DoJE=F BraDBF=F KetDBF=F FulRan=T
         wScrn=  0.000000 ICntrl=      2127 IOpCl=  1 I1Cent=           0 NGrid=           0
         NMat0=    1 NMatS0=      1 NMatT0=    0 NMatD0=    1 NMtDS0=    0 NMtDT0=    0
 Petite list used in FoFCou.
 Leave Link  703 at Wed Jun 19 17:50:49 2019, MaxMem=  4294967296 cpu:              10.9 elap:               0.9
 (Enter /opt/gaussian/gdv-20170407-i10+/gdv/l716.exe)
 Dipole        =-8.88178420D-16 4.44089210D-15 1.28952866D+00
 ***** Axes restored to original set *****
 -------------------------------------------------------------------
 Center     Atomic                   Forces (Hartrees/Bohr)
 Number     Number              X              Y              Z
 -------------------------------------------------------------------
      1        3           0.000000000    0.000000000   -0.000249183
      2        5          -0.000038202    0.000062199    0.000039460
      3        5           0.000038202   -0.000062199    0.000039460
      4        5           0.000102325    0.000051271   -0.000005534
      5        5          -0.000024766    0.000064324    0.000090666
      6        5          -0.000102325   -0.000051271   -0.000005534
      7        5           0.000024766   -0.000064324    0.000090666
 -------------------------------------------------------------------
 Cartesian Forces:  Max     0.000249183 RMS     0.000078092
 Leave Link  716 at Wed Jun 19 17:50:49 2019, MaxMem=  4294967296 cpu:               0.3 elap:               0.0
 (Enter /opt/gaussian/gdv-20170407-i10+/gdv/l103.exe)

 GradGradGradGradGradGradGradGradGradGradGradGradGradGradGradGradGradGrad
 Berny optimization.
 FormGI is forming the generalized inverse of G from B-inverse, IUseBI=4.
 Internal  Forces:  Max     0.000078022 RMS     0.000032715
 Search for a local minimum.
 Step number   1 out of a maximum of   54
 All quantities printed in internal units (Hartrees-Bohrs-Radians)
 RMS Force = .32715D-04 SwitMx=.10000D-02 MixMth= 2
 Mixed Optimization -- En-DIIS/RFO-DIIS
 Second derivative matrix not updated -- first step.
 ITU=  0
     Eigenvalues ---    0.01148   0.01937   0.03789   0.04275   0.04959
     Eigenvalues ---    0.06267   0.12750   0.13251   0.14609   0.16166
     Eigenvalues ---    0.19801   0.20695   0.21269   0.24748   0.26129
 RFO step:  Lambda=-3.58632316D-07 EMin= 1.14830563D-02
 Linear search not attempted -- first point.
 Iteration  1 RMS(Cart)=  0.00016472 RMS(Int)=  0.00000006
 Iteration  2 RMS(Cart)=  0.00000002 RMS(Int)=  0.00000004
 ITry= 1 IFail=0 DXMaxC= 7.32D-04 DCOld= 1.00D+10 DXMaxT= 3.00D-01 DXLimC= 3.00D+00 Rises=F
 ClnCor:  largest displacement from symmetrization is 8.80D-07 for atom     3.
 Variable       Old X    -DE/DX   Delta X   Delta X   Delta X     New X
                                 (Linear)    (Quad)   (Total)
    R1        4.84145  -0.00001   0.00000  -0.00032  -0.00032   4.84113
    R2        4.84145  -0.00001   0.00000  -0.00032  -0.00032   4.84113
    R3        4.53841  -0.00002   0.00000  -0.00035  -0.00035   4.53806
    R4        4.16246  -0.00008   0.00000  -0.00099  -0.00099   4.16147
    R5        4.53841  -0.00003   0.00000  -0.00035  -0.00035   4.53806
    R6        4.16246  -0.00008   0.00000  -0.00099  -0.00099   4.16147
    R7        2.90273   0.00005   0.00000   0.00016   0.00016   2.90289
    R8        3.09391   0.00002   0.00000   0.00004   0.00004   3.09395
    R9        2.90273   0.00005   0.00000   0.00016   0.00016   2.90289
   R10        3.09391   0.00002   0.00000   0.00004   0.00004   3.09395
   R11        3.20425   0.00004   0.00000   0.00021   0.00021   3.20447
   R12        3.06144   0.00007   0.00000   0.00028   0.00028   3.06172
   R13        3.06144   0.00007   0.00000   0.00028   0.00028   3.06172
   R14        3.36087   0.00005   0.00000   0.00031   0.00032   3.36119
   R15        3.20425   0.00004   0.00000   0.00021   0.00021   3.20447
    A1        1.84618   0.00004   0.00000   0.00033   0.00033   1.84650
    A2        1.39920   0.00003   0.00000   0.00025   0.00025   1.39945
    A3        1.23442   0.00003   0.00000   0.00027   0.00027   1.23469
    A4        1.39920   0.00003   0.00000   0.00025   0.00025   1.39945
    A5        1.23442   0.00004   0.00000   0.00027   0.00027   1.23469
    A6        1.24291   0.00004   0.00000   0.00023   0.00023   1.24313
    A7        2.14569  -0.00002   0.00000  -0.00007  -0.00007   2.14562
    A8        2.76104   0.00002   0.00000   0.00024   0.00024   2.76128
    A9        1.89346   0.00001   0.00000   0.00000   0.00000   1.89346
   A10        2.00695   0.00001   0.00000   0.00001   0.00001   2.00696
   A11        2.14569  -0.00002   0.00000  -0.00007  -0.00007   2.14562
   A12        2.76104   0.00002   0.00000   0.00024   0.00024   2.76128
   A13        1.89346   0.00002   0.00000   0.00000   0.00000   1.89346
   A14        2.00695   0.00001   0.00000   0.00001   0.00001   2.00696
    D1        0.44270   0.00001   0.00000   0.00005   0.00005   0.44275
    D2       -0.31501  -0.00000   0.00000  -0.00007  -0.00007  -0.31508
    D3       -0.80432  -0.00001   0.00000  -0.00002  -0.00003  -0.80435
    D4        0.48006   0.00000   0.00000   0.00012   0.00012   0.48018
    D5       -1.10088   0.00001   0.00000   0.00005   0.00005  -1.10082
    D6       -1.73416  -0.00000   0.00000  -0.00007  -0.00007  -1.73423
    D7       -2.39734  -0.00000   0.00000  -0.00017  -0.00018  -2.39751
    D8        3.08536   0.00001   0.00000  -0.00010  -0.00010   3.08527
    D9        1.99277   0.00001   0.00000  -0.00004  -0.00004   1.99273
   D10        1.26033   0.00002   0.00000   0.00016   0.00016   1.26050
   D11       -0.75843  -0.00000   0.00000   0.00067   0.00067  -0.75776
   D12        0.23618   0.00002   0.00000   0.00048   0.00048   0.23666
   D13       -0.75843   0.00000   0.00000   0.00067   0.00067  -0.75776
   D14        0.23618   0.00002   0.00000   0.00048   0.00048   0.23666
   D15        2.52737   0.00001   0.00000   0.00024   0.00024   2.52762
         Item               Value     Threshold  Converged?
 Maximum Force            0.000078     0.000450     YES
 RMS     Force            0.000033     0.000300     YES
 Maximum Displacement     0.000732     0.001800     YES
 RMS     Displacement     0.000165     0.001200     YES
 Predicted change in Energy=-1.793154D-07
 Optimization completed.
    -- Stationary point found.
                           ----------------------------
                           !   Optimized Parameters   !
                           ! (Angstroms and Degrees)  !
 --------------------------                            --------------------------
 ! Name  Definition              Value          Derivative Info.                !
 --------------------------------------------------------------------------------
 ! R1    R(1,2)                  2.562          -DE/DX =    0.0                 !
 ! R2    R(1,3)                  2.562          -DE/DX =    0.0                 !
 ! R3    R(1,4)                  2.4016         -DE/DX =    0.0                 !
 ! R4    R(1,5)                  2.2027         -DE/DX =   -0.0001              !
 ! R5    R(1,6)                  2.4016         -DE/DX =    0.0                 !
 ! R6    R(1,7)                  2.2027         -DE/DX =   -0.0001              !
 ! R7    R(2,4)                  1.5361         -DE/DX =    0.0                 !
 ! R8    R(2,5)                  1.6372         -DE/DX =    0.0                 !
 ! R9    R(3,6)                  1.5361         -DE/DX =    0.0001              !
 ! R10   R(3,7)                  1.6372         -DE/DX =    0.0                 !
 ! R11   R(4,5)                  1.6956         -DE/DX =    0.0                 !
 ! R12   R(4,7)                  1.62           -DE/DX =    0.0001              !
 ! R13   R(5,6)                  1.62           -DE/DX =    0.0001              !
 ! R14   R(5,7)                  1.7785         -DE/DX =    0.0                 !
 ! R15   R(6,7)                  1.6956         -DE/DX =    0.0                 !
 ! A1    A(2,1,3)              105.778          -DE/DX =    0.0                 !
 ! A2    A(2,1,6)               80.1685         -DE/DX =    0.0                 !
 ! A3    A(2,1,7)               70.7268         -DE/DX =    0.0                 !
 ! A4    A(3,1,4)               80.1685         -DE/DX =    0.0                 !
 ! A5    A(3,1,5)               70.7268         -DE/DX =    0.0                 !
 ! A6    A(4,1,6)               71.2133         -DE/DX =    0.0                 !
 ! A7    A(2,4,7)              122.9387         -DE/DX =    0.0                 !
 ! A8    A(2,5,6)              158.196          -DE/DX =    0.0                 !
 ! A9    A(2,5,7)              108.4873         -DE/DX =    0.0                 !
 ! A10   A(4,5,6)              114.9896         -DE/DX =    0.0                 !
 ! A11   A(3,6,5)              122.9387         -DE/DX =    0.0                 !
 ! A12   A(3,7,4)              158.196          -DE/DX =    0.0                 !
 ! A13   A(3,7,5)              108.4873         -DE/DX =    0.0                 !
 ! A14   A(4,7,6)              114.9896         -DE/DX =    0.0                 !
 ! D1    D(2,1,3,4)             25.3648         -DE/DX =    0.0                 !
 ! D2    D(2,1,3,5)            -18.0488         -DE/DX =    0.0                 !
 ! D3    D(2,1,3,6)            -46.0843         -DE/DX =    0.0                 !
 ! D4    D(2,1,3,7)             27.5057         -DE/DX =    0.0                 !
 ! D5    D(2,1,4,5)            -63.0755         -DE/DX =    0.0                 !
 ! D6    D(2,1,4,6)            -99.3601         -DE/DX =    0.0                 !
 ! D7    D(2,1,4,7)           -137.3572         -DE/DX =    0.0                 !
 ! D8    D(2,1,5,6)            176.7783         -DE/DX =    0.0                 !
 ! D9    D(2,1,5,7)            114.1772         -DE/DX =    0.0                 !
 ! D10   D(2,1,6,7)             72.2118         -DE/DX =    0.0                 !
 ! D11   D(2,4,7,3)            -43.4547         -DE/DX =    0.0                 !
 ! D12   D(2,4,7,6)             13.5322         -DE/DX =    0.0                 !
 ! D13   D(2,5,6,3)            -43.4547         -DE/DX =    0.0                 !
 ! D14   D(4,5,6,3)             13.5322         -DE/DX =    0.0                 !
 ! D15   D(2,5,7,3)            144.8078         -DE/DX =    0.0                 !
 --------------------------------------------------------------------------------
 Lowest energy point so far.  Saving SCF results.
 Largest change from initial coordinates is atom    0       0.000 Angstoms.
 GradGradGradGradGradGradGradGradGradGradGradGradGradGradGradGradGradGrad

 Leave Link  103 at Wed Jun 19 17:50:49 2019, MaxMem=  4294967296 cpu:               0.2 elap:               0.0
 (Enter /opt/gaussian/gdv-20170407-i10+/gdv/l202.exe)
                          Input orientation:                          
 ---------------------------------------------------------------------
 Center     Atomic      Atomic             Coordinates (Angstroms)
 Number     Number       Type             X           Y           Z
 ---------------------------------------------------------------------
      1          3           0        0.000000    0.000000    1.670800
      2          5           0        0.000000    2.043100    0.125000
      3          5           0       -0.000000   -2.043100    0.125000
      4          5           0        1.013700    0.963100   -0.281800
      5          5           0       -0.644200    0.613000   -0.344400
      6          5           0       -1.013700   -0.963100   -0.281800
      7          5           0        0.644200   -0.613000   -0.344400
 ---------------------------------------------------------------------
                    Distance matrix (angstroms):
                    1          2          3          4          5
     1  Li   0.000000
     2  B    2.561983   0.000000
     3  B    2.561983   4.086200   0.000000
     4  B    2.401624   1.536058   3.198486   0.000000
     5  B    2.202679   1.637228   2.773120   1.695618   0.000000
     6  B    2.401624   3.198486   1.536058   2.796533   1.620043
     7  B    2.202679   2.773120   1.637228   1.620043   1.778497
                    6          7
     6  B    0.000000
     7  B    1.695618   0.000000
 Stoichiometry    B6Li(1-,3)
 Framework group  C2[C2(Li),X(B6)]
 Deg. of freedom     8
 Full point group                 C2      NOp   2
 RotChk:  IX=0 Diff= 0.00D+00
 Largest Abelian subgroup         C2      NOp   2
 Largest concise Abelian subgroup C2      NOp   2
                         Standard orientation:                         
 ---------------------------------------------------------------------
 Center     Atomic      Atomic             Coordinates (Angstroms)
 Number     Number       Type             X           Y           Z
 ---------------------------------------------------------------------
      1          3           0        0.000000    0.000000    1.670788
      2          5           0        0.000000    2.043100    0.124988
      3          5           0       -0.000000   -2.043100    0.124988
      4          5           0        1.013700    0.963100   -0.281812
      5          5           0       -0.644200    0.613000   -0.344412
      6          5           0       -1.013700   -0.963100   -0.281812
      7          5           0        0.644200   -0.613000   -0.344412
 ---------------------------------------------------------------------
 Rotational constants (GHZ):           9.3175787           3.4449800           3.3167333
 Leave Link  202 at Wed Jun 19 17:50:49 2019, MaxMem=  4294967296 cpu:               0.1 elap:               0.0
 (Enter /opt/gaussian/gdv-20170407-i10+/gdv/l9999.exe)
 Unable to Open any file for archive entry.
 1\1\GINC-NODE16\FOpt\UB3LYP\6-311+G(d)\B6Li1(1-,3)\HHARB\19-Jun-2019\0
 \\#p ub3lyp/6-311+G* scf=(novaracc,maxcycles=512) int=(acc2e=12,grid=u
 ltrafine) opt freq\\Title Card Required\\-1,3\Li,0.,0.,1.6708\B,0.,2.0
 431,0.125\B,0.,-2.0431,0.125\B,1.0137,0.9631,-0.2818\B,-0.6442,0.613,-
 0.3444\B,-1.0137,-0.9631,-0.2818\B,0.6442,-0.613,-0.3444\\Version=ES64
 L-GDVRevI.10+\State=3-B\HF=-156.4877476\S2=2.020899\S2-1=0.\S2A=2.0002
 24\RMSD=2.738e-09\RMSF=7.809e-05\Dipole=0.,0.,1.2895287\Quadrupole=1.2
 807158,-14.4295758,13.1488601,-1.8207133,0.,0.\PG=C02 [C2(Li1),X(B6)]\
 \@
 The archive entry for this job was punched.


0EVERYBODY IS IGNORANT, ONLY ON DIFFERENT SUBJECTS.
0          WILL ROGERS
 Leave Link 9999 at Wed Jun 19 17:50:49 2019, MaxMem=  4294967296 cpu:               0.3 elap:               0.0
 Job cpu time:       0 days  0 hours  1 minutes 44.1 seconds.
 Elapsed time:       0 days  0 hours  0 minutes 10.1 seconds.
 File lengths (MBytes):  RWF=     21 Int=      0 D2E=      0 Chk=      4 Scr=      1
 Normal termination of Gaussian DV at Wed Jun 19 17:50:49 2019.
 (Enter /opt/gaussian/gdv-20170407-i10+/gdv/local/l1.exe)
 Link1:  Proceeding to internal job step number  2.
 ----------------------------------------------------------------------
 #P Geom=AllCheck Guess=TCheck SCRF=Check GenChk UB3LYP/6-311+G(d) Freq
 ----------------------------------------------------------------------
 1/10=4,29=7,30=1,38=1,40=1/1,3;
 2/12=2,40=1/2;
 3/5=4,6=6,7=11,11=2,14=-4,25=1,27=12,30=1,70=2,71=2,74=-5,75=-5,116=2,140=1/1,2,3;
 4/5=101/1;
 5/5=2,7=512,38=6,87=12,98=1/2;
 8/6=4,10=90,11=11,87=12/1;
 11/6=1,8=1,9=11,15=111,16=1,87=12/1,2,10;
 10/6=1,87=12/2;
 6/7=2,8=2,9=2,10=2,28=1,87=12/1;
 7/8=1,10=1,25=1,87=12/1,2,3,16;
 1/10=4,30=1/3;
 99//99;
 Leave Link    1 at Wed Jun 19 17:50:49 2019, MaxMem=  4294967296 cpu:               0.3 elap:               0.0
 (Enter /opt/gaussian/gdv-20170407-i10+/gdv/l101.exe)
 Structure from the checkpoint file:  "2-1-3-oso.chk"
 -------------------
 Title Card Required
 -------------------
 Charge = -1 Multiplicity = 3
 Redundant internal coordinates found in file.  (old form).
 Li,0,0.,0.,1.6708
 B,0,0.,2.0431,0.125
 B,0,0.,-2.0431,0.125
 B,0,1.0137,0.9631,-0.2818
 B,0,-0.6442,0.613,-0.3444
 B,0,-1.0137,-0.9631,-0.2818
 B,0,0.6442,-0.613,-0.3444
 Recover connectivity data from disk.
 ITRead=  0  0  0  0  0  0  0
 MicOpt= -1 -1 -1 -1 -1 -1 -1
 NAtoms=      7 NQM=        7 NQMF=       0 NMMI=      0 NMMIF=      0
                NMic=       0 NMicF=      0.
                    Isotopes and Nuclear Properties:
 (Nuclear quadrupole moments (NQMom) in fm**2, nuclear magnetic moments (NMagM)
  in nuclear magnetons)

  Atom         1           2           3           4           5           6           7
 IAtWgt=           7          11          11          11          11          11          11
 AtmWgt=   7.0160045  11.0093053  11.0093053  11.0093053  11.0093053  11.0093053  11.0093053
 NucSpn=           3           3           3           3           3           3           3
 AtZEff=   1.3500000   2.7500000   2.7500000   2.7500000   2.7500000   2.7500000   2.7500000
 NQMom=   -4.0100000   4.0590000   4.0590000   4.0590000   4.0590000   4.0590000   4.0590000
 NMagM=    3.2564240   2.6886370   2.6886370   2.6886370   2.6886370   2.6886370   2.6886370
 AtZNuc=   3.0000000   5.0000000   5.0000000   5.0000000   5.0000000   5.0000000   5.0000000
 Leave Link  101 at Wed Jun 19 17:50:49 2019, MaxMem=  4294967296 cpu:               4.5 elap:               0.4
 (Enter /opt/gaussian/gdv-20170407-i10+/gdv/l103.exe)

 GradGradGradGradGradGradGradGradGradGradGradGradGradGradGradGradGradGrad
 Berny optimization.
 Initialization pass.
                           ----------------------------
                           !    Initial Parameters    !
                           ! (Angstroms and Degrees)  !
 --------------------------                            --------------------------
 ! Name  Definition              Value          Derivative Info.                !
 --------------------------------------------------------------------------------
 ! R1    R(1,2)                  2.562          calculate D2E/DX2 analytically  !
 ! R2    R(1,3)                  2.562          calculate D2E/DX2 analytically  !
 ! R3    R(1,4)                  2.4016         calculate D2E/DX2 analytically  !
 ! R4    R(1,5)                  2.2027         calculate D2E/DX2 analytically  !
 ! R5    R(1,6)                  2.4016         calculate D2E/DX2 analytically  !
 ! R6    R(1,7)                  2.2027         calculate D2E/DX2 analytically  !
 ! R7    R(2,4)                  1.5361         calculate D2E/DX2 analytically  !
 ! R8    R(2,5)                  1.6372         calculate D2E/DX2 analytically  !
 ! R9    R(3,6)                  1.5361         calculate D2E/DX2 analytically  !
 ! R10   R(3,7)                  1.6372         calculate D2E/DX2 analytically  !
 ! R11   R(4,5)                  1.6956         calculate D2E/DX2 analytically  !
 ! R12   R(4,7)                  1.62           calculate D2E/DX2 analytically  !
 ! R13   R(5,6)                  1.62           calculate D2E/DX2 analytically  !
 ! R14   R(5,7)                  1.7785         calculate D2E/DX2 analytically  !
 ! R15   R(6,7)                  1.6956         calculate D2E/DX2 analytically  !
 ! A1    A(2,1,3)              105.778          calculate D2E/DX2 analytically  !
 ! A2    A(2,1,6)               80.1685         calculate D2E/DX2 analytically  !
 ! A3    A(2,1,7)               70.7268         calculate D2E/DX2 analytically  !
 ! A4    A(3,1,4)               80.1685         calculate D2E/DX2 analytically  !
 ! A5    A(3,1,5)               70.7268         calculate D2E/DX2 analytically  !
 ! A6    A(4,1,6)               71.2133         calculate D2E/DX2 analytically  !
 ! A7    A(2,4,7)              122.9387         calculate D2E/DX2 analytically  !
 ! A8    A(2,5,6)              158.196          calculate D2E/DX2 analytically  !
 ! A9    A(2,5,7)              108.4873         calculate D2E/DX2 analytically  !
 ! A10   A(4,5,6)              114.9896         calculate D2E/DX2 analytically  !
 ! A11   A(3,6,5)              122.9387         calculate D2E/DX2 analytically  !
 ! A12   A(3,7,4)              158.196          calculate D2E/DX2 analytically  !
 ! A13   A(3,7,5)              108.4873         calculate D2E/DX2 analytically  !
 ! A14   A(4,7,6)              114.9896         calculate D2E/DX2 analytically  !
 ! D1    D(2,1,3,4)             25.3648         calculate D2E/DX2 analytically  !
 ! D2    D(2,1,3,5)            -18.0488         calculate D2E/DX2 analytically  !
 ! D3    D(2,1,3,6)            -46.0843         calculate D2E/DX2 analytically  !
 ! D4    D(2,1,3,7)             27.5057         calculate D2E/DX2 analytically  !
 ! D5    D(2,1,4,5)            -63.0755         calculate D2E/DX2 analytically  !
 ! D6    D(2,1,4,6)            -99.3601         calculate D2E/DX2 analytically  !
 ! D7    D(2,1,4,7)           -137.3572         calculate D2E/DX2 analytically  !
 ! D8    D(2,1,5,6)            176.7783         calculate D2E/DX2 analytically  !
 ! D9    D(2,1,5,7)            114.1772         calculate D2E/DX2 analytically  !
 ! D10   D(2,1,6,7)             72.2118         calculate D2E/DX2 analytically  !
 ! D11   D(2,4,7,3)            -43.4547         calculate D2E/DX2 analytically  !
 ! D12   D(2,4,7,6)             13.5322         calculate D2E/DX2 analytically  !
 ! D13   D(2,5,6,3)            -43.4547         calculate D2E/DX2 analytically  !
 ! D14   D(4,5,6,3)             13.5322         calculate D2E/DX2 analytically  !
 ! D15   D(2,5,7,3)            144.8078         calculate D2E/DX2 analytically  !
 --------------------------------------------------------------------------------
 Trust Radius=3.00D-01 FncErr=1.00D-07 GrdErr=1.00D-07 EigMax=2.50D+02 EigMin=1.00D-04
 Number of steps in this run=      2 maximum allowed number of steps=      2.
 GradGradGradGradGradGradGradGradGradGradGradGradGradGradGradGradGradGrad

 Leave Link  103 at Wed Jun 19 17:50:49 2019, MaxMem=  4294967296 cpu:               0.1 elap:               0.0
 (Enter /opt/gaussian/gdv-20170407-i10+/gdv/l202.exe)
                          Input orientation:                          
 ---------------------------------------------------------------------
 Center     Atomic      Atomic             Coordinates (Angstroms)
 Number     Number       Type             X           Y           Z
 ---------------------------------------------------------------------
      1          3           0       -0.000000    0.000000    1.670800
      2          5           0       -0.000000    2.043100    0.125000
      3          5           0       -0.000000   -2.043100    0.125000
      4          5           0        1.013700    0.963100   -0.281800
      5          5           0       -0.644200    0.613000   -0.344400
      6          5           0       -1.013700   -0.963100   -0.281800
      7          5           0        0.644200   -0.613000   -0.344400
 ---------------------------------------------------------------------
                    Distance matrix (angstroms):
                    1          2          3          4          5
     1  Li   0.000000
     2  B    2.561983   0.000000
     3  B    2.561983   4.086200   0.000000
     4  B    2.401624   1.536058   3.198486   0.000000
     5  B    2.202679   1.637228   2.773120   1.695618   0.000000
     6  B    2.401624   3.198486   1.536058   2.796533   1.620043
     7  B    2.202679   2.773120   1.637228   1.620043   1.778497
                    6          7
     6  B    0.000000
     7  B    1.695618   0.000000
 Stoichiometry    B6Li(1-,3)
 Framework group  C2[C2(Li),X(B6)]
 Deg. of freedom     8
 Full point group                 C2      NOp   2
 RotChk:  IX=0 Diff= 0.00D+00
 Largest Abelian subgroup         C2      NOp   2
 Largest concise Abelian subgroup C2      NOp   2
                         Standard orientation:                         
 ---------------------------------------------------------------------
 Center     Atomic      Atomic             Coordinates (Angstroms)
 Number     Number       Type             X           Y           Z
 ---------------------------------------------------------------------
      1          3           0        0.000000    0.000000    1.670788
      2          5           0        0.000000    2.043100    0.124988
      3          5           0       -0.000000   -2.043100    0.124988
      4          5           0        1.013700    0.963100   -0.281812
      5          5           0       -0.644200    0.613000   -0.344412
      6          5           0       -1.013700   -0.963100   -0.281812
      7          5           0        0.644200   -0.613000   -0.344412
 ---------------------------------------------------------------------
 Rotational constants (GHZ):           9.3175787           3.4449800           3.3167333
 Leave Link  202 at Wed Jun 19 17:50:49 2019, MaxMem=  4294967296 cpu:               0.1 elap:               0.0
 (Enter /opt/gaussian/gdv-20170407-i10+/gdv/l301.exe)
 Standard basis: 6-311+G(d) (5D, 7F)
 Ernie: Thresh=  0.10000D-02 Tol=  0.10000D-05 Strict=F.
 There are    82 symmetry adapted cartesian basis functions of A   symmetry.
 There are    79 symmetry adapted cartesian basis functions of B   symmetry.
 There are    78 symmetry adapted basis functions of A   symmetry.
 There are    76 symmetry adapted basis functions of B   symmetry.
   154 basis functions,   252 primitive gaussians,   161 cartesian basis functions
    18 alpha electrons       16 beta electrons
       nuclear repulsion energy       118.5566856706 Hartrees.
 IExCor=  402 DFT=T Ex+Corr=B3LYP ExCW=0 ScaHFX=  0.200000
 ScaDFX=  0.800000  0.720000  1.000000  0.810000 ScalE2=  1.000000  1.000000
 IRadAn=      5 IRanWt=     -1 IRanGd=            0 ICorTp=0 IEmpDi=  4
[...]
 Root      2 :     1.499469960672554   Change is   -0.000067696928736
 Root      3 :     1.533089259163492   Change is   -0.001530263457894
 Iteration     9 Dimension    43 NMult    41 NNew      2
 CISAX will form     2 AO SS matrices at one time.
 NMat=     2 NSing=     2 JSym2X=-1.
 Root      1 has converged.
 Root      2 has converged.
 Root      3 not converged, maximum delta is    0.030176594160913
 Excitation Energies [eV] at current iteration:
 Root      1 :     0.973482239877409   Change is   -0.000000321003496
 Root      2 :     1.499464185472390   Change is   -0.000005775200164
 Root      3 :     1.532656422680840   Change is   -0.000432836482653
 Iteration    10 Dimension    44 NMult    43 NNew      1
 CISAX will form     1 AO SS matrices at one time.
 NMat=     1 NSing=     1 JSym2X=-1.
 Root      1 has converged.
 Root      2 has converged.
 Root      3 not converged, maximum delta is    0.010704311944512
 Excitation Energies [eV] at current iteration:
 Root      1 :     0.973482239877390   Change is   -0.000000000000018
 Root      2 :     1.499464185472390   Change is    0.000000000000000
 Root      3 :     1.532538885762082   Change is   -0.000117536918758
 Iteration    11 Dimension    45 NMult    44 NNew      1
 CISAX will form     1 AO SS matrices at one time.
 NMat=     1 NSing=     1 JSym2X=-1.
 Root      1 has converged.
 Root      2 has converged.
 Root      3 not converged, maximum delta is    0.004277017091362
 Excitation Energies [eV] at current iteration:
 Root      1 :     0.973482239877366   Change is   -0.000000000000024
 Root      2 :     1.499464185472396   Change is    0.000000000000006
 Root      3 :     1.532510505113160   Change is   -0.000028380648922
 Iteration    12 Dimension    46 NMult    45 NNew      1
 CISAX will form     1 AO SS matrices at one time.
 NMat=     1 NSing=     1 JSym2X=-1.
 Root      1 has converged.
 Root      2 has converged.
 Root      3 has converged.
 Excitation Energies [eV] at current iteration:
 Root      1 :     0.973482239877396   Change is    0.000000000000030
 Root      2 :     1.499464185472371   Change is   -0.000000000000024
 Root      3 :     1.532506619042912   Change is   -0.000003886070248
 Convergence achieved on expansion vectors.
 ***********************************************************************
 Stability analysis using <AA,BB:AA,BB> singles matrix:
 ***********************************************************************
 1PDM for each excited state written to RWF  633
 Ground to excited state transition densities written to RWF  633

 Eigenvectors of the stability matrix:
 
 Eigenvector   1:  3.164-A    Eigenvalue= 0.0357748  <S**2>=2.253
     17A -> 24A       -0.12277
     16B -> 17B        0.94584
     16B -> 20B       -0.17343
 
 Eigenvector   2:  3.102-A    Eigenvalue= 0.0551043  <S**2>=2.156
     18A -> 19A        0.91520
     18A -> 22A       -0.16532
     18A -> 23A       -0.30755
 
 Eigenvector   3:  3.451-B    Eigenvalue= 0.0563186  <S**2>=2.727
     17A -> 19A        0.10795
     17A -> 23A       -0.12280
     17A -> 27A        0.10529
     18A -> 24A        0.40973
     18A -> 25A        0.16291
     15B -> 17B       -0.18410
     16B -> 18B        0.63633
     16B -> 21B       -0.43514
     16B -> 22B        0.16788
     16B -> 23B       -0.13915
 The wavefunction is stable under the perturbations considered.
 Leave Link  914 at Wed Jun 19 17:53:14 2019, MaxMem=  4294967296 cpu:             341.6 elap:              28.9
 (Enter /opt/gaussian/gdv-20170407-i10+/gdv/l601.exe)
 Copying SCF densities to generalized density rwf, IOpCl= 1 IROHF=0.

 **********************************************************************

            Population analysis using the SCF Density.

 **********************************************************************

 Orbital symmetries:
 Alpha Orbitals:
       Occupied  (B) (A) (A) (B) (B) (A) (A) (A) (B) (A) (B) (A)
                 (A) (B) (A) (B) (B) (A)
       Virtual   (A) (B) (B) (A) (A) (B) (B) (B) (A) (B) (A) (A)
                 (A) (B) (B) (A) (A) (B) (A) (B) (B) (A) (B) (A)
                 (B) (A) (A) (B) (A) (B) (B) (A) (B) (A) (A) (B)
                 (B) (A) (B) (B) (A) (A) (B) (B) (A) (B) (A) (A)
                 (A) (B) (B) (A) (B) (B) (A) (A) (B) (B) (A) (B)
                 (A) (B) (A) (B) (A) (B) (A) (A) (B) (A) (B) (B)
                 (A) (B) (A) (A) (B) (A) (A) (B) (B) (A) (B) (B)
                 (A) (A) (A) (B) (B) (A) (B) (A) (B) (A) (B) (B)
                 (A) (A) (B) (A) (B) (A) (B) (A) (A) (B) (B) (A)
                 (B) (B) (A) (A) (B) (A) (B) (A) (B) (A) (B) (A)
                 (B) (A) (A) (B) (B) (A) (B) (B) (A) (A) (A) (B)
                 (B) (A) (A) (B)
 Beta  Orbitals:
       Occupied  (A) (B) (B) (A) (B) (A) (A) (A) (B) (A) (B) (A)
                 (A) (B) (A) (B)
       Virtual   (B) (A) (B) (B) (A) (A) (A) (B) (B) (B) (B) (A)
                 (A) (A) (A) (B) (B) (A) (B) (A) (A) (B) (B) (B)
                 (A) (A) (B) (A) (A) (B) (B) (A) (B) (B) (A) (A)
                 (A) (B) (B) (A) (B) (B) (A) (A) (B) (A) (B) (A)
                 (B) (A) (B) (A) (B) (B) (A) (B) (A) (A) (B) (B)
                 (A) (B) (A) (B) (A) (B) (A) (B) (A) (A) (B) (A)
                 (B) (B) (A) (B) (A) (A) (B) (A) (A) (B) (B) (A)
                 (B) (B) (A) (A) (B) (A) (B) (A) (B) (A) (B) (A)
                 (B) (B) (A) (B) (A) (B) (A) (A) (B) (A) (A) (B)
                 (B) (A) (B) (B) (A) (A) (B) (A) (B) (A) (B) (A)
                 (B) (A) (B) (A) (A) (B) (B) (A) (B) (B) (A) (A)
                 (A) (B) (B) (A) (A) (B)
 The electronic state is 3-B.
 Alpha  occ. eigenvalues --   -6.56314  -6.56313  -6.56153  -6.56125  -6.55129
 Alpha  occ. eigenvalues --   -6.55124  -1.86555  -0.50887  -0.39801  -0.25286
 Alpha  occ. eigenvalues --   -0.23169  -0.14173  -0.10694  -0.09893  -0.09761
 Alpha  occ. eigenvalues --   -0.05351  -0.03744  -0.01559
 Alpha virt. eigenvalues --    0.06130   0.07278   0.07388   0.08162   0.08400
 Alpha virt. eigenvalues --    0.08983   0.11326   0.12946   0.13649   0.13780
 Alpha virt. eigenvalues --    0.14330   0.14804   0.15188   0.15359   0.15837
 Alpha virt. eigenvalues --    0.16574   0.17320   0.17335   0.18138   0.18286
 Alpha virt. eigenvalues --    0.19773   0.20369   0.20514   0.21137   0.21226
 Alpha virt. eigenvalues --    0.22421   0.23121   0.23810   0.24334   0.24368
 Alpha virt. eigenvalues --    0.25044   0.26574   0.26680   0.26924   0.27898
 Alpha virt. eigenvalues --    0.28144   0.28928   0.29034   0.29745   0.30733
 Alpha virt. eigenvalues --    0.31143   0.36316   0.36943   0.42015   0.42142
 Alpha virt. eigenvalues --    0.44647   0.44992   0.46672   0.47804   0.48947
 Alpha virt. eigenvalues --    0.53542   0.54138   0.54164   0.54691   0.54916
 Alpha virt. eigenvalues --    0.55685   0.57738   0.57987   0.58638   0.60112
 Alpha virt. eigenvalues --    0.63082   0.63473   0.64382   0.65572   0.67187
 Alpha virt. eigenvalues --    0.67319   0.67923   0.72393   0.72559   0.76423
 Alpha virt. eigenvalues --    0.78271   0.78713   0.80036   0.83033   0.83543
 Alpha virt. eigenvalues --    0.84735   0.88227   0.89311   0.90920   0.92953
 Alpha virt. eigenvalues --    0.95325   0.97566   0.98727   1.12181   1.15113
 Alpha virt. eigenvalues --    1.18096   1.22594   1.22837   1.27370   1.31096
 Alpha virt. eigenvalues --    1.33288   1.36545   1.41074   1.43373   1.43567
 Alpha virt. eigenvalues --    1.50022   1.51222   1.53124   1.53599   1.56654
 Alpha virt. eigenvalues --    1.57331   1.64490   1.66658   1.69122   1.73331
 Alpha virt. eigenvalues --    1.74082   1.78840   1.85639   1.95223   1.99096
 Alpha virt. eigenvalues --    2.02007   2.06857   2.15959   2.17915   2.19448
 Alpha virt. eigenvalues --    2.20103   2.24173   2.28421   2.30601   2.40222
 Alpha virt. eigenvalues --    2.44156   2.47001   2.49516   2.50837   2.55920
 Alpha virt. eigenvalues --    2.72265   2.84790   2.90930   3.03695   4.07957
 Alpha virt. eigenvalues --   14.20356  14.80763  14.94305  15.10813  15.29174
 Alpha virt. eigenvalues --   15.34516
  Beta  occ. eigenvalues --   -6.56052  -6.56025  -6.55285  -6.55283  -6.54967
  Beta  occ. eigenvalues --   -6.54962  -1.86575  -0.50077  -0.38477  -0.23064
  Beta  occ. eigenvalues --   -0.22294  -0.13899  -0.09539  -0.07581  -0.07289
  Beta  occ. eigenvalues --   -0.03271
  Beta virt. eigenvalues --    0.05289   0.05908   0.07370   0.07501   0.07676
  Beta virt. eigenvalues --    0.08329   0.09462   0.09470   0.12182   0.13229
  Beta virt. eigenvalues --    0.14153   0.14296   0.14710   0.15283   0.15629
  Beta virt. eigenvalues --    0.15726   0.16153   0.16999   0.17477   0.17514
  Beta virt. eigenvalues --    0.18219   0.18507   0.19967   0.20611   0.20979
  Beta virt. eigenvalues --    0.21324   0.21482   0.22719   0.23278   0.23956
  Beta virt. eigenvalues --    0.24384   0.24800   0.25064   0.26822   0.26991
  Beta virt. eigenvalues --    0.27383   0.28107   0.28500   0.29522   0.29574
  Beta virt. eigenvalues --    0.30474   0.31774   0.32263   0.36479   0.38106
  Beta virt. eigenvalues --    0.42555   0.42976   0.45664   0.46561   0.47226
  Beta virt. eigenvalues --    0.49279   0.49627   0.53874   0.54555   0.54794
  Beta virt. eigenvalues --    0.54828   0.55366   0.56188   0.57988   0.58414
  Beta virt. eigenvalues --    0.59480   0.62174   0.63334   0.64506   0.65353
  Beta virt. eigenvalues --    0.66516   0.67674   0.67878   0.69375   0.72846
  Beta virt. eigenvalues --    0.73278   0.77862   0.79207   0.80641   0.80901
  Beta virt. eigenvalues --    0.83559   0.84395   0.85655   0.89023   0.89772
  Beta virt. eigenvalues --    0.92471   0.93620   0.95905   0.99109   0.99594
  Beta virt. eigenvalues --    1.14340   1.16203   1.19513   1.23669   1.23676
  Beta virt. eigenvalues --    1.28485   1.32838   1.35601   1.36903   1.43088
  Beta virt. eigenvalues --    1.44747   1.45408   1.51903   1.53193   1.53923
  Beta virt. eigenvalues --    1.54511   1.58137   1.58805   1.65400   1.68931
  Beta virt. eigenvalues --    1.71282   1.75329   1.76136   1.80046   1.87034
  Beta virt. eigenvalues --    1.96431   1.99712   2.02909   2.07402   2.16765
  Beta virt. eigenvalues --    2.18330   2.19961   2.20504   2.24309   2.29043
  Beta virt. eigenvalues --    2.31849   2.41619   2.44956   2.48171   2.51480
  Beta virt. eigenvalues --    2.53164   2.56581   2.72731   2.85424   2.91481
  Beta virt. eigenvalues --    3.04404   4.07961  14.20876  14.81606  14.94506
  Beta virt. eigenvalues --   15.11249  15.29890  15.35131
          Condensed to atoms (all electrons):
               1          2          3          4          5          6
     1  Li   2.365264   0.113211   0.113211   0.054375   0.138343   0.054375
     2  B    0.113211   4.894398   0.154551   0.232490   0.514436  -0.559085
     3  B    0.113211   0.154551   4.894398  -0.559085   0.073046   0.232490
     4  B    0.054375   0.232490  -0.559085   5.292418   0.214445   0.051079
     5  B    0.138343   0.514436   0.073046   0.214445   4.189395  -0.190588
     6  B    0.054375  -0.559085   0.232490   0.051079  -0.190588   5.292418
     7  B    0.138343   0.073046   0.514436  -0.190588   0.054182   0.214445
               7
     1  Li   0.138343
     2  B    0.073046
     3  B    0.514436
     4  B   -0.190588
     5  B    0.054182
     6  B    0.214445
     7  B    4.189395
          Atomic-Atomic Spin Densities.
               1          2          3          4          5          6
     1  Li  -0.019023  -0.002194  -0.002194   0.031734  -0.027133   0.031734
     2  B   -0.002194   0.825464   0.154107  -0.072700   0.025450  -0.086609
     3  B   -0.002194   0.154107   0.825464  -0.086609  -0.018846  -0.072700
     4  B    0.031734  -0.072700  -0.086609   0.061069  -0.109937   0.259543
     5  B   -0.027133   0.025450  -0.018846  -0.109937  -0.025460   0.112780
     6  B    0.031734  -0.086609  -0.072700   0.259543   0.112780   0.061069
     7  B   -0.027133  -0.018846   0.025450   0.112780   0.029696  -0.109937
               7
     1  Li  -0.027133
     2  B   -0.018846
     3  B    0.025450
     4  B    0.112780
     5  B    0.029696
     6  B   -0.109937
     7  B   -0.025460
 Mulliken charges and spin densities:
               1          2
     1  Li   0.022879  -0.014209
     2  B   -0.423047   0.824672
     3  B   -0.423047   0.824672
     4  B   -0.095133   0.195881
     5  B    0.006741  -0.013449
     6  B   -0.095133   0.195881
     7  B    0.006741  -0.013449
 Sum of Mulliken charges =  -1.00000   2.00000
 Mulliken charges and spin densities with hydrogens summed into heavy atoms:
               1          2
     1  Li   0.022879  -0.014209
     2  B   -0.423047   0.824672
     3  B   -0.423047   0.824672
     4  B   -0.095133   0.195881
     5  B    0.006741  -0.013449
     6  B   -0.095133   0.195881
     7  B    0.006741  -0.013449
 Electronic spatial extent (au):  <R**2>=            406.7706
 Charge=             -1.0000 electrons
 Dipole moment (field-independent basis, Debye):
    X=              0.0000    Y=             -0.0000    Z=              3.2777  Tot=              3.2777
 Quadrupole moment (field-independent basis, Debye-Ang):
   XX=            -53.0251   YY=            -74.1560   ZZ=            -37.0620
   XY=             -2.4489   XZ=              0.0000   YZ=              0.0000
 Traceless Quadrupole moment (field-independent basis, Debye-Ang):
   XX=              1.7226   YY=            -19.4083   ZZ=             17.6857
   XY=             -2.4489   XZ=              0.0000   YZ=              0.0000
 Octapole moment (field-independent basis, Debye-Ang**2):
  XXX=              0.0000  YYY=              0.0000  ZZZ=             22.7139  XYY=              0.0000
  XXY=              0.0000  XXZ=              1.5029  XZZ=             -0.0000  YZZ=             -0.0000
  YYZ=             -9.8995  XYZ=              0.6901
 Hexadecapole moment (field-independent basis, Debye-Ang**3):
 XXXX=           -249.0458 YYYY=           -831.4503 ZZZZ=           -111.2675 XXXY=            -29.0814
 XXXZ=              0.0000 YYYX=            -32.2240 YYYZ=              0.0000 ZZZX=             -0.0000
 ZZZY=              0.0000 XXYY=           -166.6443 XXZZ=            -63.9030 YYZZ=           -152.2941
 XXYZ=             -0.0000 YYXZ=             -0.0000 ZZXY=            -10.1143
 N-N= 1.185566856706D+02 E-N=-6.041641100590D+02  KE= 1.555994098830D+02
 Symmetry A    KE= 8.214794049283D+01
 Symmetry B    KE= 7.345146939018D+01
 Symmetry A    SP= 1.000000000000D+00
 Symmetry B    SP= 1.000000000000D+00
                          Isotropic Fermi Contact Couplings
        Atom                 a.u.       MegaHertz       Gauss      10(-4) cm-1
     1  Li(7)             -0.00249      -2.15971      -0.77064      -0.72040
     2  B(11)              0.30158     216.28780      77.17687      72.14585
     3  B(11)              0.30158     216.28780      77.17687      72.14585
     4  B(11)              0.03809      27.31977       9.74837       9.11289
     5  B(11)              0.02455      17.60917       6.28339       5.87379
     6  B(11)              0.03809      27.31977       9.74837       9.11289
     7  B(11)              0.02455      17.60917       6.28339       5.87379
 --------------------------------------------------------
       Center         ----  Spin Dipole Couplings  ----
                      3XX-RR        3YY-RR        3ZZ-RR
 --------------------------------------------------------
     1   Atom       -0.010383      0.009192      0.001191
     2   Atom       -0.075794      0.220728     -0.144934
     3   Atom       -0.075794      0.220728     -0.144934
     4   Atom       -0.002775      0.033463     -0.030688
     5   Atom       -0.026320      0.075437     -0.049117
     6   Atom       -0.002775      0.033463     -0.030688
     7   Atom       -0.026320      0.075437     -0.049117
 --------------------------------------------------------
                        XY            XZ            YZ
 --------------------------------------------------------
     1   Atom       -0.000742      0.000000      0.000000
     2   Atom       -0.159510     -0.013947      0.102063
     3   Atom       -0.159510      0.013947     -0.102063
     4   Atom       -0.067568     -0.046974      0.058829
     5   Atom       -0.029533     -0.008304      0.038048
     6   Atom       -0.067568      0.046974     -0.058829
     7   Atom       -0.029533      0.008304     -0.038048
 --------------------------------------------------------


 ---------------------------------------------------------------------------------
              Anisotropic Spin Dipole Couplings in Principal Axis System
 ---------------------------------------------------------------------------------

       Atom             a.u.   MegaHertz   Gauss  10(-4) cm-1        Axes

              Baa    -0.0104    -2.159    -0.770    -0.720  0.9993  0.0378 -0.0000
     1 Li(7)  Bbb     0.0012     0.247     0.088     0.082  0.0000 -0.0000  1.0000
              Bcc     0.0092     1.912     0.682     0.638 -0.0378  0.9993  0.0000
 
              Baa    -0.1852   -31.713   -11.316   -10.578 -0.4515 -0.3803  0.8071
     2 B(11)  Bbb    -0.1266   -21.678    -7.735    -7.231  0.8081  0.2093  0.5507
              Bcc     0.3118    53.391    19.051    17.809 -0.3784  0.9009  0.2128
 
              Baa    -0.1852   -31.713   -11.316   -10.578  0.4515  0.3803  0.8071
     3 B(11)  Bbb    -0.1266   -21.678    -7.735    -7.231  0.8081  0.2093 -0.5507
              Bcc     0.3118    53.391    19.051    17.809 -0.3784  0.9009 -0.2128
 
              Baa    -0.0678   -11.616    -4.145    -3.875  0.3454 -0.2882  0.8931
     4 B(11)  Bbb    -0.0545    -9.328    -3.329    -3.112  0.7611  0.6428 -0.0869
              Bcc     0.1223    20.944     7.473     6.986 -0.5491  0.7097  0.4414
 
              Baa    -0.0598   -10.242    -3.655    -3.416 -0.0001 -0.2708  0.9626
     5 B(11)  Bbb    -0.0341    -5.846    -2.086    -1.950  0.9690  0.2379  0.0671
              Bcc     0.0940    16.088     5.741     5.366 -0.2471  0.9328  0.2624
 
              Baa    -0.0678   -11.616    -4.145    -3.875 -0.3454  0.2882  0.8931
     6 B(11)  Bbb    -0.0545    -9.328    -3.329    -3.112  0.7611  0.6428  0.0869
              Bcc     0.1223    20.944     7.473     6.986 -0.5491  0.7097 -0.4414
 
              Baa    -0.0598   -10.242    -3.655    -3.416  0.0001  0.2708  0.9626
     7 B(11)  Bbb    -0.0341    -5.846    -2.086    -1.950  0.9690  0.2379 -0.0671
              Bcc     0.0940    16.088     5.741     5.366 -0.2471  0.9328 -0.2624
 

 ---------------------------------------------------------------------------------

 No NMR shielding tensors so no spin-rotation constants.
 Leave Link  601 at Wed Jun 19 17:53:14 2019, MaxMem=  4294967296 cpu:               2.7 elap:               0.3
 (Enter /opt/gaussian/gdv-20170407-i10+/gdv/l9999.exe)
 Unable to Open any file for archive entry.
 1\1\GINC-NODE16\Stability\UB3LYP\Gen\B6Li1(1-,3)\HHARB\19-Jun-2019\0\\
 #p ub3lyp geom=allcheck guess=read chkbasis stable scf=(novaracc,maxcy
 cles=512) int=(acc2e=12,grid=ultrafine)\\Title Card Required\\-1,3\Li,
 0,0.,0.,1.6708\B,0,0.,2.0431,0.125\B,0,0.,-2.0431,0.125\B,0,1.0137,0.9
 631,-0.2818\B,0,-0.6442,0.613,-0.3444\B,0,-1.0137,-0.9631,-0.2818\B,0,
 0.6442,-0.613,-0.3444\\Version=ES64L-GDVRevI.10+\State=3-B\HF=-156.487
 7476\S2=2.020899\S2-1=0.\S2A=2.000224\RMSD=5.205e-10\Dipole=0.,0.,1.28
 95287\Quadrupole=1.2807157,-14.4295758,13.1488601,-1.8207134,0.,0.\PG=
 C02 [C2(Li1),X(B6)]\\@
 The archive entry for this job was punched.


 EVERYTHING'S GOT A MORAL, IF ONLY YOU CAN FIND IT.

                                    -- LEWIS CARROL, ALICE IN WONDERLAND
 Job cpu time:       0 days  0 hours  6 minutes  9.1 seconds.
 Elapsed time:       0 days  0 hours  0 minutes 31.5 seconds.
 File lengths (MBytes):  RWF=    126 Int=      0 D2E=      0 Chk=     67 Scr=      1
 Normal termination of Gaussian DV at Wed Jun 19 17:53:14 2019.
