 Entering Gaussian System, Link 0=g16
 Input=base_molecule.com
 Output=base_molecule.log
 Initial command:
 /soft/gaussian/16-c.01/g16/l1.exe "/scratch/Gau-116468.inp" -scrdir="/scratch/"
 Default CPUs for threads: 0-63
 Default linda workers: knld-0048
 Default is to use  64 SMP processors on each worker.
 Entering Link 1 = /soft/gaussian/16-c.01/g16/l1.exe PID=    116470.
  
 Copyright (c) 1988-2019, Gaussian, Inc.  All Rights Reserved.
  
 This is part of the Gaussian(R) 16 program.  It is based on
 the Gaussian(R) 09 system (copyright 2009, Gaussian, Inc.),
 the Gaussian(R) 03 system (copyright 2003, Gaussian, Inc.),
 the Gaussian(R) 98 system (copyright 1998, Gaussian, Inc.),
 the Gaussian(R) 94 system (copyright 1995, Gaussian, Inc.),
 the Gaussian 92(TM) system (copyright 1992, Gaussian, Inc.),
 the Gaussian 90(TM) system (copyright 1990, Gaussian, Inc.),
 the Gaussian 88(TM) system (copyright 1988, Gaussian, Inc.),
 the Gaussian 86(TM) system (copyright 1986, Carnegie Mellon
 University), and the Gaussian 82(TM) system (copyright 1983,
 Carnegie Mellon University). Gaussian is a federally registered
 trademark of Gaussian, Inc.
  
 This software contains proprietary and confidential information,
 including trade secrets, belonging to Gaussian, Inc.
  
 This software is provided under written license and may be
 used, copied, transmitted, or stored only in accord with that
 written license.
  
 The following legend is applicable only to US Government
 contracts under FAR:
  
                    RESTRICTED RIGHTS LEGEND
  
 Use, reproduction and disclosure by the US Government is
 subject to restrictions as set forth in subparagraphs (a)
 and (c) of the Commercial Computer Software - Restricted
 Rights clause in FAR 52.227-19.
  
 Gaussian, Inc.
 340 Quinnipiac St., Bldg. 40, Wallingford CT 06492
  
  
 ---------------------------------------------------------------
 Warning -- This program may not be used in any manner that
 competes with the business of Gaussian, Inc. or will provide
 assistance to any competitor of Gaussian, Inc.  The licensee
 of this program is prohibited from giving any competitor of
 Gaussian, Inc. access to this program.  By using this program,
 the user acknowledges that Gaussian, Inc. is engaged in the
 business of creating and licensing software in the field of
 computational chemistry and represents and warrants to the
 licensee that it is not a competitor of Gaussian, Inc. and that
 it will not use this program in any manner prohibited above.
 ---------------------------------------------------------------
  

 Cite this work as:
 Gaussian 16, Revision C.01,
 M. J. Frisch, G. W. Trucks, H. B. Schlegel, G. E. Scuseria, 
 M. A. Robb, J. R. Cheeseman, G. Scalmani, V. Barone, 
 G. A. Petersson, H. Nakatsuji, X. Li, M. Caricato, A. V. Marenich, 
 J. Bloino, B. G. Janesko, R. Gomperts, B. Mennucci, H. P. Hratchian, 
 J. V. Ortiz, A. F. Izmaylov, J. L. Sonnenberg, D. Williams-Young, 
 F. Ding, F. Lipparini, F. Egidi, J. Goings, B. Peng, A. Petrone, 
 T. Henderson, D. Ranasinghe, V. G. Zakrzewski, J. Gao, N. Rega, 
 G. Zheng, W. Liang, M. Hada, M. Ehara, K. Toyota, R. Fukuda, 
 J. Hasegawa, M. Ishida, T. Nakajima, Y. Honda, O. Kitao, H. Nakai, 
 T. Vreven, K. Throssell, J. A. Montgomery, Jr., J. E. Peralta, 
 F. Ogliaro, M. J. Bearpark, J. J. Heyd, E. N. Brothers, K. N. Kudin, 
 V. N. Staroverov, T. A. Keith, R. Kobayashi, J. Normand, 
 K. Raghavachari, A. P. Rendell, J. C. Burant, S. S. Iyengar, 
 J. Tomasi, M. Cossi, J. M. Millam, M. Klene, C. Adamo, R. Cammi, 
 J. W. Ochterski, R. L. Martin, K. Morokuma, O. Farkas, 
 J. B. Foresman, and D. J. Fox, Gaussian, Inc., Wallingford CT, 2019.
 
 ******************************************
 Gaussian 16:  ES64L-G16RevC.01  3-Jul-2019
                19-Sep-2023 
 ******************************************
 %chk=base_molecule
 SetSPE:  set environment variable "MP_BIND" = "yes"
 SetSPE:  set environment variable "MP_BLIST" = "0,1,2,3,4,5,6,7,8,9,10,11,12,13,14,15,16,17,18,19,20,21,22,23,24,25,26,27,28,29,30,31,32,33,34,35,36,37,38,39,40,41,42,43,44,45,46,47,48,49,50,51,52,53,54,55,56,57,58,59,60,61,62,63"
 SetLPE:    new flags="-opt 'Tsnet.Node.lindarsharg: ssh'  -nodelist 'knld-0048.lcrc.anl.gov' -env GAUSS_MDEF=2013265920 -env GAUSS_EXEDIR="/soft/gaussian/16-c.01/g16/bsd:/soft/gaussian/16-c.01/g16" -env "MP_BIND=yes" -env "MP_BLIST=0,1,2,3,4,5,6,7,8,9,10,11,12,13,14,15,16,17,18,19,20,21,22,23,24,25,26,27,28,29,30,31,32,33,34,35,36,37,38,39,40,41,42,43,44,45,46,47,48,49,50,51,52,53,54,55,56,57,58,59,60,61,62,63" -env GAUSS_ADEF="0,1,2,3,4,5,6,7,8,9,10,11,12,13,14,15,16,17,18,19,20,21,22,23,24,25,26,27,28,29,30,31,32,33,34,35,36,37,38,39,40,41,42,43,44,45,46,47,48,49,50,51,52,53,54,55,56,57,58,59,60,61,62,63""
 Will use up to    1 processors via Linda.
 ----------------------------------------------------------------------
 #p opt freq ub3lyp empiricaldispersion=gd3 6-31+g(2df,p) scf=(novaracc
 ,maxcycles=1000,fermi,xqc)
 ----------------------------------------------------------------------
 1/18=20,19=15,26=3,38=1/1,3;
 2/9=110,12=2,17=6,18=5,40=1/2;
 3/5=1,6=6,7=114,11=2,25=1,30=1,71=1,74=-5,116=2,124=31/1,2,3;
 4//1;
 5/5=2,7=1000,8=3,13=1,22=13,38=1/2,8;
 6/7=2,8=2,9=2,10=2,28=1/1;
 7//1,2,3,16;
 1/18=20,19=15,26=3/3(2);
 2/9=110/2;
 99//99;
 2/9=110/2;
 3/5=1,6=6,7=114,11=2,25=1,30=1,71=1,74=-5,116=2,124=31/1,2,3;
 4/5=5,16=3,69=1/1;
 5/5=2,7=1000,8=3,13=1,22=13,38=1/2,8;
 7//1,2,3,16;
 1/18=20,19=15,26=3/3(-5);
 2/9=110/2;
 6/7=2,8=2,9=2,10=2,19=2,28=1/1;
 99/9=1/99;
 Leave Link    1 at Tue Sep 19 20:25:51 2023, MaxMem=           0 cpu:              14.6 elap:               0.2
 (Enter /soft/gaussian/16-c.01/g16/l101.exe)
 -------------------
 Title Card Required
 -------------------
 Symbolic Z-matrix:
 Charge =  0 Multiplicity = 1
 C                    -0.36668   0.49568   0.07936 
 C                    -0.4033   -0.85872   0.05118 
 C                     0.25307  -1.67048   1.18334 
 C                     0.86742  -1.03043   2.20778 
 C                     0.90906   0.50868   2.2398 
 C                     0.33133   1.22303   1.24355 
 C                     0.3728    2.76213   1.27561 
 C                     1.6239    3.26091   0.54589 
 C                    -0.86406   3.32731   0.57044 
 H                     0.39173   3.09518   2.29229 
 C                    -0.82454   3.57947  -0.76174 
 C                    -2.07076   4.1509   -1.46523 
 C                    -3.3536    4.4327   -0.66104 
 C                    -3.3894    4.17816   0.6687 
 C                    -2.1467    3.60779   1.37514 
 C                     1.57159   3.51555  -0.78538 
 C                     2.83237   4.02016  -1.51361 
 C                     4.14401   4.23281  -0.73502 
 C                     4.19243   3.97596   0.59387 
 C                     2.9353    3.47217   1.32498 
 C                     5.40097   4.73753  -1.46784 
 C                     6.55543   4.92436  -0.78306 
 C                     6.6103    4.6319    0.7279 
 C                     5.50405   4.1879    1.37251 
 C                    -4.59613   5.00397  -1.3692 
 C                    -5.72527   5.25166  -0.66188 
 C                    -5.7658    4.96182   0.85003 
 C                    -4.67225   4.45926   1.47295 
 O                    -2.04023   4.38783  -2.70075 
 O                    -2.17871   3.37078   2.61061 
 O                     2.79014   4.25905  -2.7484 
 O                     2.97902   3.23305   2.55968 
 C                     0.21127  -3.20958   1.15135 
 C                    -1.05345  -3.67727   0.42453 
 C                     1.43449  -3.74448   0.40026 
 H                     0.21092  -3.58514   2.15328 
 C                     1.37016  -3.94036  -0.94039 
 C                     2.73158  -4.05851   1.16858 
 C                     3.96057  -4.59867   0.41591 
 C                     3.89999  -4.79707  -0.92246 
 C                     2.60273  -4.48166  -1.69023 
 C                     5.25784  -4.91337   1.18376 
 C                     6.33929  -5.38932   0.52013 
 C                     6.27059  -5.61532  -1.00162 
 C                     5.12877  -5.33808  -1.67689 
 C                    -1.02595  -3.87559  -0.91702 
 C                    -2.35038  -3.92123   1.21816 
 C                    -3.6212   -4.39374   0.48985 
 C                    -3.59754  -4.59435  -0.84935 
 C                    -2.30035  -4.34909  -1.64242 
 C                    -4.91837  -4.6383    1.283 
 C                    -6.0367   -5.0547    0.64082 
 C                    -6.01     -5.2832   -0.88188 
 C                    -4.86824  -5.0677   -1.57941 
 O                     0.35995   3.32046  -1.53556 
 O                     0.17177  -3.64904  -1.68059 
 O                    -2.37107  -3.7344    2.46244 
 O                    -2.28114  -4.53574  -2.88675 
 O                     2.78661  -3.87364   2.41211 
 O                     2.54921  -4.66638  -2.93385 
 H                    -4.56792   5.2053   -2.41971 
 H                    -6.58857   5.64857  -1.1539 
 H                    -6.65727   5.15723   1.40861 
 H                    -4.70013   4.25782   2.52345 
 H                    -4.93664  -4.47948   2.34099 
 H                    -6.93812  -5.22469   1.19168 
 H                    -6.89287  -5.61208  -1.38911 
 H                    -4.84964  -5.22641  -2.63742 
 H                     5.3053   -4.75628   2.2411 
 H                     7.24078  -5.60806   1.05341 
 H                     7.12433  -5.99122  -1.52578 
 H                    -0.82275   1.0597   -0.70727 
 H                    -0.88828  -1.36408  -0.75771 
 H                     1.32355  -1.59444   2.99438 
 H                     1.39412   1.01405   3.04865 
 H                     5.3628    4.94068  -2.51768 
 H                     7.42876   5.27505  -1.2922 
 H                     5.08099  -5.49505  -2.73423 
 H                     7.52175   4.77925   1.26868 
 H                     5.54189   3.98464   2.42235 
 
 ITRead=  0  0  0  0  0  0  0  0  0  0  0  0  0  0  0  0  0  0  0  0
 ITRead=  0  0  0  0  0  0  0  0  0  0  0  0  0  0  0  0  0  0  0  0
 ITRead=  0  0  0  0  0  0  0  0  0  0  0  0  0  0  0  0  0  0  0  0
 ITRead=  0  0  0  0  0  0  0  0  0  0  0  0  0  0  0  0  0  0  0  0
 MicOpt= -1 -1 -1 -1 -1 -1 -1 -1 -1 -1 -1 -1 -1 -1 -1 -1 -1 -1 -1 -1
 MicOpt= -1 -1 -1 -1 -1 -1 -1 -1 -1 -1 -1 -1 -1 -1 -1 -1 -1 -1 -1 -1
 MicOpt= -1 -1 -1 -1 -1 -1 -1 -1 -1 -1 -1 -1 -1 -1 -1 -1 -1 -1 -1 -1
 MicOpt= -1 -1 -1 -1 -1 -1 -1 -1 -1 -1 -1 -1 -1 -1 -1 -1 -1 -1 -1 -1
 NAtoms=     80 NQM=       80 NQMF=       0 NMMI=      0 NMMIF=      0
                NMic=       0 NMicF=      0.
                    Isotopes and Nuclear Properties:
 (Nuclear quadrupole moments (NQMom) in fm**2, nuclear magnetic moments (NMagM)
  in nuclear magnetons)

  Atom         1           2           3           4           5           6           7           8           9          10
 IAtWgt=          12          12          12          12          12          12          12          12          12           1
 AtmWgt=  12.0000000  12.0000000  12.0000000  12.0000000  12.0000000  12.0000000  12.0000000  12.0000000  12.0000000   1.0078250
 NucSpn=           0           0           0           0           0           0           0           0           0           1
 AtZEff=  -0.0000000  -0.0000000  -0.0000000  -0.0000000  -0.0000000  -0.0000000  -0.0000000  -0.0000000  -0.0000000  -0.0000000
 NQMom=    0.0000000   0.0000000   0.0000000   0.0000000   0.0000000   0.0000000   0.0000000   0.0000000   0.0000000   0.0000000
 NMagM=    0.0000000   0.0000000   0.0000000   0.0000000   0.0000000   0.0000000   0.0000000   0.0000000   0.0000000   2.7928460
 AtZNuc=   6.0000000   6.0000000   6.0000000   6.0000000   6.0000000   6.0000000   6.0000000   6.0000000   6.0000000   1.0000000

  Atom        11          12          13          14          15          16          17          18          19          20
 IAtWgt=          12          12          12          12          12          12          12          12          12          12
 AtmWgt=  12.0000000  12.0000000  12.0000000  12.0000000  12.0000000  12.0000000  12.0000000  12.0000000  12.0000000  12.0000000
 NucSpn=           0           0           0           0           0           0           0           0           0           0
 AtZEff=  -0.0000000  -0.0000000  -0.0000000  -0.0000000  -0.0000000  -0.0000000  -0.0000000  -0.0000000  -0.0000000  -0.0000000
 NQMom=    0.0000000   0.0000000   0.0000000   0.0000000   0.0000000   0.0000000   0.0000000   0.0000000   0.0000000   0.0000000
 NMagM=    0.0000000   0.0000000   0.0000000   0.0000000   0.0000000   0.0000000   0.0000000   0.0000000   0.0000000   0.0000000
 AtZNuc=   6.0000000   6.0000000   6.0000000   6.0000000   6.0000000   6.0000000   6.0000000   6.0000000   6.0000000   6.0000000

  Atom        21          22          23          24          25          26          27          28          29          30
 IAtWgt=          12          12          12          12          12          12          12          12          16          16
 AtmWgt=  12.0000000  12.0000000  12.0000000  12.0000000  12.0000000  12.0000000  12.0000000  12.0000000  15.9949146  15.9949146
 NucSpn=           0           0           0           0           0           0           0           0           0           0
 AtZEff=  -0.0000000  -0.0000000  -0.0000000  -0.0000000  -0.0000000  -0.0000000  -0.0000000  -0.0000000  -0.0000000  -0.0000000
 NQMom=    0.0000000   0.0000000   0.0000000   0.0000000   0.0000000   0.0000000   0.0000000   0.0000000   0.0000000   0.0000000
 NMagM=    0.0000000   0.0000000   0.0000000   0.0000000   0.0000000   0.0000000   0.0000000   0.0000000   0.0000000   0.0000000
 AtZNuc=   6.0000000   6.0000000   6.0000000   6.0000000   6.0000000   6.0000000   6.0000000   6.0000000   8.0000000   8.0000000

  Atom        31          32          33          34          35          36          37          38          39          40
 IAtWgt=          16          16          12          12          12           1          12          12          12          12
 AtmWgt=  15.9949146  15.9949146  12.0000000  12.0000000  12.0000000   1.0078250  12.0000000  12.0000000  12.0000000  12.0000000
 NucSpn=           0           0           0           0           0           1           0           0           0           0
 AtZEff=  -0.0000000  -0.0000000  -0.0000000  -0.0000000  -0.0000000  -0.0000000  -0.0000000  -0.0000000  -0.0000000  -0.0000000
 NQMom=    0.0000000   0.0000000   0.0000000   0.0000000   0.0000000   0.0000000   0.0000000   0.0000000   0.0000000   0.0000000
 NMagM=    0.0000000   0.0000000   0.0000000   0.0000000   0.0000000   2.7928460   0.0000000   0.0000000   0.0000000   0.0000000
 AtZNuc=   8.0000000   8.0000000   6.0000000   6.0000000   6.0000000   1.0000000   6.0000000   6.0000000   6.0000000   6.0000000

  Atom        41          42          43          44          45          46          47          48          49          50
 IAtWgt=          12          12          12          12          12          12          12          12          12          12
 AtmWgt=  12.0000000  12.0000000  12.0000000  12.0000000  12.0000000  12.0000000  12.0000000  12.0000000  12.0000000  12.0000000
 NucSpn=           0           0           0           0           0           0           0           0           0           0
 AtZEff=  -0.0000000  -0.0000000  -0.0000000  -0.0000000  -0.0000000  -0.0000000  -0.0000000  -0.0000000  -0.0000000  -0.0000000
 NQMom=    0.0000000   0.0000000   0.0000000   0.0000000   0.0000000   0.0000000   0.0000000   0.0000000   0.0000000   0.0000000
 NMagM=    0.0000000   0.0000000   0.0000000   0.0000000   0.0000000   0.0000000   0.0000000   0.0000000   0.0000000   0.0000000
 AtZNuc=   6.0000000   6.0000000   6.0000000   6.0000000   6.0000000   6.0000000   6.0000000   6.0000000   6.0000000   6.0000000

  Atom        51          52          53          54          55          56          57          58          59          60
 IAtWgt=          12          12          12          12          16          16          16          16          16          16
 AtmWgt=  12.0000000  12.0000000  12.0000000  12.0000000  15.9949146  15.9949146  15.9949146  15.9949146  15.9949146  15.9949146
 NucSpn=           0           0           0           0           0           0           0           0           0           0
 AtZEff=  -0.0000000  -0.0000000  -0.0000000  -0.0000000  -0.0000000  -0.0000000  -0.0000000  -0.0000000  -0.0000000  -0.0000000
 NQMom=    0.0000000   0.0000000   0.0000000   0.0000000   0.0000000   0.0000000   0.0000000   0.0000000   0.0000000   0.0000000
 NMagM=    0.0000000   0.0000000   0.0000000   0.0000000   0.0000000   0.0000000   0.0000000   0.0000000   0.0000000   0.0000000
 AtZNuc=   6.0000000   6.0000000   6.0000000   6.0000000   8.0000000   8.0000000   8.0000000   8.0000000   8.0000000   8.0000000

  Atom        61          62          63          64          65          66          67          68          69          70
 IAtWgt=           1           1           1           1           1           1           1           1           1           1
 AtmWgt=   1.0078250   1.0078250   1.0078250   1.0078250   1.0078250   1.0078250   1.0078250   1.0078250   1.0078250   1.0078250
 NucSpn=           1           1           1           1           1           1           1           1           1           1
 AtZEff=  -0.0000000  -0.0000000  -0.0000000  -0.0000000  -0.0000000  -0.0000000  -0.0000000  -0.0000000  -0.0000000  -0.0000000
 NQMom=    0.0000000   0.0000000   0.0000000   0.0000000   0.0000000   0.0000000   0.0000000   0.0000000   0.0000000   0.0000000
 NMagM=    2.7928460   2.7928460   2.7928460   2.7928460   2.7928460   2.7928460   2.7928460   2.7928460   2.7928460   2.7928460
 AtZNuc=   1.0000000   1.0000000   1.0000000   1.0000000   1.0000000   1.0000000   1.0000000   1.0000000   1.0000000   1.0000000

  Atom        71          72          73          74          75          76          77          78          79          80
 IAtWgt=           1           1           1           1           1           1           1           1           1           1
 AtmWgt=   1.0078250   1.0078250   1.0078250   1.0078250   1.0078250   1.0078250   1.0078250   1.0078250   1.0078250   1.0078250
 NucSpn=           1           1           1           1           1           1           1           1           1           1
 AtZEff=  -0.0000000  -0.0000000  -0.0000000  -0.0000000  -0.0000000  -0.0000000  -0.0000000  -0.0000000  -0.0000000  -0.0000000
 NQMom=    0.0000000   0.0000000   0.0000000   0.0000000   0.0000000   0.0000000   0.0000000   0.0000000   0.0000000   0.0000000
 NMagM=    2.7928460   2.7928460   2.7928460   2.7928460   2.7928460   2.7928460   2.7928460   2.7928460   2.7928460   2.7928460
 AtZNuc=   1.0000000   1.0000000   1.0000000   1.0000000   1.0000000   1.0000000   1.0000000   1.0000000   1.0000000   1.0000000
 Leave Link  101 at Tue Sep 19 20:25:51 2023, MaxMem=  2013265920 cpu:              33.6 elap:               0.6
 (Enter /soft/gaussian/16-c.01/g16/l103.exe)

 GradGradGradGradGradGradGradGradGradGradGradGradGradGradGradGradGradGrad
 Berny optimization.
 Initialization pass.
                           ----------------------------
                           !    Initial Parameters    !
                           ! (Angstroms and Degrees)  !
 --------------------------                            --------------------------
 ! Name  Definition              Value          Derivative Info.                !
 --------------------------------------------------------------------------------
 ! R1    R(1,2)                  1.3552         estimate D2E/DX2                !
 ! R2    R(1,6)                  1.54           estimate D2E/DX2                !
 ! R3    R(1,72)                 1.07           estimate D2E/DX2                !
 ! R4    R(2,3)                  1.54           estimate D2E/DX2                !
 ! R5    R(2,73)                 1.07           estimate D2E/DX2                !
 ! R6    R(3,4)                  1.3552         estimate D2E/DX2                !
 ! R7    R(3,33)                 1.54           estimate D2E/DX2                !
 ! R8    R(4,5)                  1.54           estimate D2E/DX2                !
 ! R9    R(4,74)                 1.07           estimate D2E/DX2                !
 ! R10   R(5,6)                  1.3552         estimate D2E/DX2                !
 ! R11   R(5,75)                 1.07           estimate D2E/DX2                !
 ! R12   R(6,7)                  1.54           estimate D2E/DX2                !
 ! R13   R(7,8)                  1.5318         estimate D2E/DX2                !
 ! R14   R(7,9)                  1.5318         estimate D2E/DX2                !
 ! R15   R(7,10)                 1.07           estimate D2E/DX2                !
 ! R16   R(8,16)                 1.3564         estimate D2E/DX2                !
 ! R17   R(8,20)                 1.5399         estimate D2E/DX2                !
 ! R18   R(9,11)                 1.3564         estimate D2E/DX2                !
 ! R19   R(9,15)                 1.5399         estimate D2E/DX2                !
 ! R20   R(11,12)                1.5409         estimate D2E/DX2                !
 ! R21   R(11,55)                1.4384         estimate D2E/DX2                !
 ! R22   R(12,13)                1.5401         estimate D2E/DX2                !
 ! R23   R(12,29)                1.2584         estimate D2E/DX2                !
 ! R24   R(13,14)                1.3544         estimate D2E/DX2                !
 ! R25   R(13,25)                1.54           estimate D2E/DX2                !
 ! R26   R(14,15)                1.5391         estimate D2E/DX2                !
 ! R27   R(14,28)                1.54           estimate D2E/DX2                !
 ! R28   R(15,30)                1.2584         estimate D2E/DX2                !
 ! R29   R(16,17)                1.5409         estimate D2E/DX2                !
 ! R30   R(16,55)                1.4384         estimate D2E/DX2                !
 ! R31   R(17,18)                1.5401         estimate D2E/DX2                !
 ! R32   R(17,31)                1.2584         estimate D2E/DX2                !
 ! R33   R(18,19)                1.3544         estimate D2E/DX2                !
 ! R34   R(18,21)                1.54           estimate D2E/DX2                !
 ! R35   R(19,20)                1.5391         estimate D2E/DX2                !
 ! R36   R(19,24)                1.54           estimate D2E/DX2                !
 ! R37   R(20,32)                1.2584         estimate D2E/DX2                !
 ! R38   R(21,22)                1.3552         estimate D2E/DX2                !
 ! R39   R(21,76)                1.07           estimate D2E/DX2                !
 ! R40   R(22,23)                1.54           estimate D2E/DX2                !
 ! R41   R(22,77)                1.07           estimate D2E/DX2                !
 ! R42   R(23,24)                1.3552         estimate D2E/DX2                !
 ! R43   R(23,79)                1.07           estimate D2E/DX2                !
 ! R44   R(24,80)                1.07           estimate D2E/DX2                !
 ! R45   R(25,26)                1.3552         estimate D2E/DX2                !
 ! R46   R(25,61)                1.07           estimate D2E/DX2                !
 ! R47   R(26,27)                1.54           estimate D2E/DX2                !
 ! R48   R(26,62)                1.07           estimate D2E/DX2                !
 ! R49   R(27,28)                1.3552         estimate D2E/DX2                !
 ! R50   R(27,63)                1.07           estimate D2E/DX2                !
 ! R51   R(28,64)                1.07           estimate D2E/DX2                !
 ! R52   R(33,34)                1.5318         estimate D2E/DX2                !
 ! R53   R(33,35)                1.5318         estimate D2E/DX2                !
 ! R54   R(33,36)                1.07           estimate D2E/DX2                !
 ! R55   R(34,46)                1.3564         estimate D2E/DX2                !
 ! R56   R(34,47)                1.5399         estimate D2E/DX2                !
 ! R57   R(35,37)                1.3564         estimate D2E/DX2                !
 ! R58   R(35,38)                1.5399         estimate D2E/DX2                !
 ! R59   R(37,41)                1.5409         estimate D2E/DX2                !
 ! R60   R(37,56)                1.4384         estimate D2E/DX2                !
 ! R61   R(38,39)                1.5391         estimate D2E/DX2                !
 ! R62   R(38,59)                1.2584         estimate D2E/DX2                !
 ! R63   R(39,40)                1.3544         estimate D2E/DX2                !
 ! R64   R(39,42)                1.54           estimate D2E/DX2                !
 ! R65   R(40,41)                1.5401         estimate D2E/DX2                !
 ! R66   R(40,45)                1.54           estimate D2E/DX2                !
 ! R67   R(41,60)                1.2584         estimate D2E/DX2                !
 ! R68   R(42,43)                1.3552         estimate D2E/DX2                !
 ! R69   R(42,69)                1.07           estimate D2E/DX2                !
 ! R70   R(43,44)                1.54           estimate D2E/DX2                !
 ! R71   R(43,70)                1.07           estimate D2E/DX2                !
 ! R72   R(44,45)                1.3552         estimate D2E/DX2                !
 ! R73   R(44,71)                1.07           estimate D2E/DX2                !
 ! R74   R(45,78)                1.07           estimate D2E/DX2                !
 ! R75   R(46,50)                1.5409         estimate D2E/DX2                !
 ! R76   R(46,56)                1.4384         estimate D2E/DX2                !
 ! R77   R(47,48)                1.5391         estimate D2E/DX2                !
 ! R78   R(47,57)                1.2584         estimate D2E/DX2                !
 ! R79   R(48,49)                1.3544         estimate D2E/DX2                !
 ! R80   R(48,51)                1.54           estimate D2E/DX2                !
 ! R81   R(49,50)                1.5401         estimate D2E/DX2                !
 ! R82   R(49,54)                1.54           estimate D2E/DX2                !
 ! R83   R(50,58)                1.2584         estimate D2E/DX2                !
 ! R84   R(51,52)                1.3552         estimate D2E/DX2                !
 ! R85   R(51,65)                1.07           estimate D2E/DX2                !
 ! R86   R(52,53)                1.54           estimate D2E/DX2                !
 ! R87   R(52,66)                1.07           estimate D2E/DX2                !
 ! R88   R(53,54)                1.3552         estimate D2E/DX2                !
 ! R89   R(53,67)                1.07           estimate D2E/DX2                !
 ! R90   R(54,68)                1.07           estimate D2E/DX2                !
 ! A1    A(2,1,6)              120.0            estimate D2E/DX2                !
 ! A2    A(2,1,72)             120.0            estimate D2E/DX2                !
 ! A3    A(6,1,72)             119.9999         estimate D2E/DX2                !
 ! A4    A(1,2,3)              120.0002         estimate D2E/DX2                !
 ! A5    A(1,2,73)             120.0            estimate D2E/DX2                !
 ! A6    A(3,2,73)             119.9998         estimate D2E/DX2                !
 ! A7    A(2,3,4)              120.0002         estimate D2E/DX2                !
 ! A8    A(2,3,33)             119.9978         estimate D2E/DX2                !
 ! A9    A(4,3,33)             120.002          estimate D2E/DX2                !
 ! A10   A(3,4,5)              119.9997         estimate D2E/DX2                !
 ! A11   A(3,4,74)             120.0003         estimate D2E/DX2                !
 ! A12   A(5,4,74)             120.0            estimate D2E/DX2                !
 ! A13   A(4,5,6)              119.9997         estimate D2E/DX2                !
 ! A14   A(4,5,75)             120.0003         estimate D2E/DX2                !
 ! A15   A(6,5,75)             120.0            estimate D2E/DX2                !
 ! A16   A(1,6,5)              120.0002         estimate D2E/DX2                !
 ! A17   A(1,6,7)              119.9982         estimate D2E/DX2                !
 ! A18   A(5,6,7)              120.0017         estimate D2E/DX2                !
 ! A19   A(6,7,8)              109.7241         estimate D2E/DX2                !
 ! A20   A(6,7,9)              109.7194         estimate D2E/DX2                !
 ! A21   A(6,7,10)             109.35           estimate D2E/DX2                !
 ! A22   A(8,7,9)              108.6648         estimate D2E/DX2                !
 ! A23   A(8,7,10)             109.6838         estimate D2E/DX2                !
 ! A24   A(9,7,10)             109.685          estimate D2E/DX2                !
 ! A25   A(7,8,16)             119.8131         estimate D2E/DX2                !
 ! A26   A(7,8,20)             119.9463         estimate D2E/DX2                !
 ! A27   A(16,8,20)            120.2406         estimate D2E/DX2                !
 ! A28   A(7,9,11)             119.8137         estimate D2E/DX2                !
 ! A29   A(7,9,15)             119.9454         estimate D2E/DX2                !
 ! A30   A(11,9,15)            120.2409         estimate D2E/DX2                !
 ! A31   A(9,11,12)            119.5873         estimate D2E/DX2                !
 ! A32   A(9,11,55)            121.2585         estimate D2E/DX2                !
 ! A33   A(12,11,55)           119.1539         estimate D2E/DX2                !
 ! A34   A(11,12,13)           120.2068         estimate D2E/DX2                !
 ! A35   A(11,12,29)           119.8966         estimate D2E/DX2                !
 ! A36   A(13,12,29)           119.8966         estimate D2E/DX2                !
 ! A37   A(12,13,14)           120.0209         estimate D2E/DX2                !
 ! A38   A(12,13,25)           119.988          estimate D2E/DX2                !
 ! A39   A(14,13,25)           119.9911         estimate D2E/DX2                !
 ! A40   A(13,14,15)           119.9324         estimate D2E/DX2                !
 ! A41   A(13,14,28)           120.0311         estimate D2E/DX2                !
 ! A42   A(15,14,28)           120.0365         estimate D2E/DX2                !
 ! A43   A(9,15,14)            120.0116         estimate D2E/DX2                !
 ! A44   A(9,15,30)            119.9943         estimate D2E/DX2                !
 ! A45   A(14,15,30)           119.9941         estimate D2E/DX2                !
 ! A46   A(8,16,17)            119.5875         estimate D2E/DX2                !
 ! A47   A(8,16,55)            121.2587         estimate D2E/DX2                !
 ! A48   A(17,16,55)           119.1536         estimate D2E/DX2                !
 ! A49   A(16,17,18)           120.207          estimate D2E/DX2                !
 ! A50   A(16,17,31)           119.8965         estimate D2E/DX2                !
 ! A51   A(18,17,31)           119.8965         estimate D2E/DX2                !
 ! A52   A(17,18,19)           120.0209         estimate D2E/DX2                !
 ! A53   A(17,18,21)           119.9878         estimate D2E/DX2                !
 ! A54   A(19,18,21)           119.9912         estimate D2E/DX2                !
 ! A55   A(18,19,20)           119.9323         estimate D2E/DX2                !
 ! A56   A(18,19,24)           120.031          estimate D2E/DX2                !
 ! A57   A(20,19,24)           120.0367         estimate D2E/DX2                !
 ! A58   A(8,20,19)            120.0116         estimate D2E/DX2                !
 ! A59   A(8,20,32)            119.9943         estimate D2E/DX2                !
 ! A60   A(19,20,32)           119.9941         estimate D2E/DX2                !
 ! A61   A(18,21,22)           120.0016         estimate D2E/DX2                !
 ! A62   A(18,21,76)           119.9993         estimate D2E/DX2                !
 ! A63   A(22,21,76)           119.9991         estimate D2E/DX2                !
 ! A64   A(21,22,23)           119.9959         estimate D2E/DX2                !
 ! A65   A(21,22,77)           120.002          estimate D2E/DX2                !
 ! A66   A(23,22,77)           120.0021         estimate D2E/DX2                !
 ! A67   A(22,23,24)           119.99           estimate D2E/DX2                !
 ! A68   A(22,23,79)           120.0049         estimate D2E/DX2                !
 ! A69   A(24,23,79)           120.005          estimate D2E/DX2                !
 ! A70   A(19,24,23)           119.9902         estimate D2E/DX2                !
 ! A71   A(19,24,80)           120.0047         estimate D2E/DX2                !
 ! A72   A(23,24,80)           120.0051         estimate D2E/DX2                !
 ! A73   A(13,25,26)           120.0016         estimate D2E/DX2                !
 ! A74   A(13,25,61)           119.9993         estimate D2E/DX2                !
 ! A75   A(26,25,61)           119.9991         estimate D2E/DX2                !
 ! A76   A(25,26,27)           119.996          estimate D2E/DX2                !
 ! A77   A(25,26,62)           120.002          estimate D2E/DX2                !
 ! A78   A(27,26,62)           120.002          estimate D2E/DX2                !
 ! A79   A(26,27,28)           119.9899         estimate D2E/DX2                !
 ! A80   A(26,27,63)           120.005          estimate D2E/DX2                !
 ! A81   A(28,27,63)           120.0051         estimate D2E/DX2                !
 ! A82   A(14,28,27)           119.9902         estimate D2E/DX2                !
 ! A83   A(14,28,64)           120.0049         estimate D2E/DX2                !
 ! A84   A(27,28,64)           120.0049         estimate D2E/DX2                !
 ! A85   A(3,33,34)            109.7189         estimate D2E/DX2                !
 ! A86   A(3,33,35)            109.7243         estimate D2E/DX2                !
 ! A87   A(3,33,36)            109.3501         estimate D2E/DX2                !
 ! A88   A(34,33,35)           108.6649         estimate D2E/DX2                !
 ! A89   A(34,33,36)           109.6855         estimate D2E/DX2                !
 ! A90   A(35,33,36)           109.6834         estimate D2E/DX2                !
 ! A91   A(33,34,46)           119.8132         estimate D2E/DX2                !
 ! A92   A(33,34,47)           119.9459         estimate D2E/DX2                !
 ! A93   A(46,34,47)           120.2408         estimate D2E/DX2                !
 ! A94   A(33,35,37)           119.8136         estimate D2E/DX2                !
 ! A95   A(33,35,38)           119.9457         estimate D2E/DX2                !
 ! A96   A(37,35,38)           120.2407         estimate D2E/DX2                !
 ! A97   A(35,37,41)           119.5874         estimate D2E/DX2                !
 ! A98   A(35,37,56)           121.2584         estimate D2E/DX2                !
 ! A99   A(41,37,56)           119.1541         estimate D2E/DX2                !
 ! A100  A(35,38,39)           120.0116         estimate D2E/DX2                !
 ! A101  A(35,38,59)           119.9942         estimate D2E/DX2                !
 ! A102  A(39,38,59)           119.9942         estimate D2E/DX2                !
 ! A103  A(38,39,40)           119.9323         estimate D2E/DX2                !
 ! A104  A(38,39,42)           120.0367         estimate D2E/DX2                !
 ! A105  A(40,39,42)           120.031          estimate D2E/DX2                !
 ! A106  A(39,40,41)           120.0209         estimate D2E/DX2                !
 ! A107  A(39,40,45)           119.9912         estimate D2E/DX2                !
 ! A108  A(41,40,45)           119.9879         estimate D2E/DX2                !
 ! A109  A(37,41,40)           120.207          estimate D2E/DX2                !
 ! A110  A(37,41,60)           119.8966         estimate D2E/DX2                !
 ! A111  A(40,41,60)           119.8964         estimate D2E/DX2                !
 ! A112  A(39,42,43)           119.9903         estimate D2E/DX2                !
 ! A113  A(39,42,69)           120.0048         estimate D2E/DX2                !
 ! A114  A(43,42,69)           120.0049         estimate D2E/DX2                !
 ! A115  A(42,43,44)           119.9899         estimate D2E/DX2                !
 ! A116  A(42,43,70)           120.0052         estimate D2E/DX2                !
 ! A117  A(44,43,70)           120.0049         estimate D2E/DX2                !
 ! A118  A(43,44,45)           119.9959         estimate D2E/DX2                !
 ! A119  A(43,44,71)           120.0021         estimate D2E/DX2                !
 ! A120  A(45,44,71)           120.0019         estimate D2E/DX2                !
 ! A121  A(40,45,44)           120.0017         estimate D2E/DX2                !
 ! A122  A(40,45,78)           119.9992         estimate D2E/DX2                !
 ! A123  A(44,45,78)           119.9991         estimate D2E/DX2                !
 ! A124  A(34,46,50)           119.5874         estimate D2E/DX2                !
 ! A125  A(34,46,56)           121.2587         estimate D2E/DX2                !
 ! A126  A(50,46,56)           119.1538         estimate D2E/DX2                !
 ! A127  A(34,47,48)           120.0115         estimate D2E/DX2                !
 ! A128  A(34,47,57)           119.9942         estimate D2E/DX2                !
 ! A129  A(48,47,57)           119.9943         estimate D2E/DX2                !
 ! A130  A(47,48,49)           119.9324         estimate D2E/DX2                !
 ! A131  A(47,48,51)           120.0365         estimate D2E/DX2                !
 ! A132  A(49,48,51)           120.0311         estimate D2E/DX2                !
 ! A133  A(48,49,50)           120.0211         estimate D2E/DX2                !
 ! A134  A(48,49,54)           119.9912         estimate D2E/DX2                !
 ! A135  A(50,49,54)           119.9878         estimate D2E/DX2                !
 ! A136  A(46,50,49)           120.2068         estimate D2E/DX2                !
 ! A137  A(46,50,58)           119.8968         estimate D2E/DX2                !
 ! A138  A(49,50,58)           119.8965         estimate D2E/DX2                !
 ! A139  A(48,51,52)           119.9902         estimate D2E/DX2                !
 ! A140  A(48,51,65)           120.0048         estimate D2E/DX2                !
 ! A141  A(52,51,65)           120.0051         estimate D2E/DX2                !
 ! A142  A(51,52,53)           119.99           estimate D2E/DX2                !
 ! A143  A(51,52,66)           120.005          estimate D2E/DX2                !
 ! A144  A(53,52,66)           120.005          estimate D2E/DX2                !
 ! A145  A(52,53,54)           119.996          estimate D2E/DX2                !
 ! A146  A(52,53,67)           120.002          estimate D2E/DX2                !
 ! A147  A(54,53,67)           120.002          estimate D2E/DX2                !
 ! A148  A(49,54,53)           120.0015         estimate D2E/DX2                !
 ! A149  A(49,54,68)           119.9993         estimate D2E/DX2                !
 ! A150  A(53,54,68)           119.9992         estimate D2E/DX2                !
 ! A151  A(11,55,16)           112.872          estimate D2E/DX2                !
 ! A152  A(37,56,46)           112.8721         estimate D2E/DX2                !
 ! D1    D(6,1,2,3)              0.001          estimate D2E/DX2                !
 ! D2    D(6,1,2,73)          -179.9997         estimate D2E/DX2                !
 ! D3    D(72,1,2,3)          -179.9983         estimate D2E/DX2                !
 ! D4    D(72,1,2,73)            0.001          estimate D2E/DX2                !
 ! D5    D(2,1,6,5)              0.0053         estimate D2E/DX2                !
 ! D6    D(2,1,6,7)           -179.9936         estimate D2E/DX2                !
 ! D7    D(72,1,6,5)          -179.9954         estimate D2E/DX2                !
 ! D8    D(72,1,6,7)             0.0057         estimate D2E/DX2                !
 ! D9    D(1,2,3,4)             -0.0064         estimate D2E/DX2                !
 ! D10   D(1,2,3,33)           179.9922         estimate D2E/DX2                !
 ! D11   D(73,2,3,4)           179.9943         estimate D2E/DX2                !
 ! D12   D(73,2,3,33)           -0.0071         estimate D2E/DX2                !
 ! D13   D(2,3,4,5)              0.0055         estimate D2E/DX2                !
 ! D14   D(2,3,4,74)          -179.995          estimate D2E/DX2                !
 ! D15   D(33,3,4,5)          -179.9931         estimate D2E/DX2                !
 ! D16   D(33,3,4,74)            0.0064         estimate D2E/DX2                !
 ! D17   D(2,3,33,34)          -29.6556         estimate D2E/DX2                !
 ! D18   D(2,3,33,35)           89.663          estimate D2E/DX2                !
 ! D19   D(2,3,33,36)         -149.9959         estimate D2E/DX2                !
 ! D20   D(4,3,33,34)          150.3431         estimate D2E/DX2                !
 ! D21   D(4,3,33,35)          -90.3384         estimate D2E/DX2                !
 ! D22   D(4,3,33,36)           30.0027         estimate D2E/DX2                !
 ! D23   D(3,4,5,6)              0.0008         estimate D2E/DX2                !
 ! D24   D(3,4,5,75)           179.9999         estimate D2E/DX2                !
 ! D25   D(74,4,5,6)          -179.9988         estimate D2E/DX2                !
 ! D26   D(74,4,5,75)            0.0004         estimate D2E/DX2                !
 ! D27   D(4,5,6,1)             -0.0062         estimate D2E/DX2                !
 ! D28   D(4,5,6,7)            179.9927         estimate D2E/DX2                !
 ! D29   D(75,5,6,1)           179.9946         estimate D2E/DX2                !
 ! D30   D(75,5,6,7)            -0.0065         estimate D2E/DX2                !
 ! D31   D(1,6,7,8)            -89.6567         estimate D2E/DX2                !
 ! D32   D(1,6,7,9)             29.6619         estimate D2E/DX2                !
 ! D33   D(1,6,7,10)           150.0019         estimate D2E/DX2                !
 ! D34   D(5,6,7,8)             90.3444         estimate D2E/DX2                !
 ! D35   D(5,6,7,9)           -150.337          estimate D2E/DX2                !
 ! D36   D(5,6,7,10)           -29.997          estimate D2E/DX2                !
 ! D37   D(6,7,8,16)            89.8848         estimate D2E/DX2                !
 ! D38   D(6,7,8,20)           -90.1472         estimate D2E/DX2                !
 ! D39   D(9,7,8,16)           -30.0789         estimate D2E/DX2                !
 ! D40   D(9,7,8,20)           149.8891         estimate D2E/DX2                !
 ! D41   D(10,7,8,16)         -149.9767         estimate D2E/DX2                !
 ! D42   D(10,7,8,20)           29.9913         estimate D2E/DX2                !
 ! D43   D(6,7,9,11)           -89.8861         estimate D2E/DX2                !
 ! D44   D(6,7,9,15)            90.1446         estimate D2E/DX2                !
 ! D45   D(8,7,9,11)            30.0806         estimate D2E/DX2                !
 ! D46   D(8,7,9,15)          -149.8887         estimate D2E/DX2                !
 ! D47   D(10,7,9,11)          149.9776         estimate D2E/DX2                !
 ! D48   D(10,7,9,15)          -29.9917         estimate D2E/DX2                !
 ! D49   D(7,8,16,17)          179.8619         estimate D2E/DX2                !
 ! D50   D(7,8,16,55)           -0.2987         estimate D2E/DX2                !
 ! D51   D(20,8,16,17)          -0.106          estimate D2E/DX2                !
 ! D52   D(20,8,16,55)         179.7334         estimate D2E/DX2                !
 ! D53   D(7,8,20,19)         -179.8766         estimate D2E/DX2                !
 ! D54   D(7,8,20,32)            0.1119         estimate D2E/DX2                !
 ! D55   D(16,8,20,19)           0.0912         estimate D2E/DX2                !
 ! D56   D(16,8,20,32)        -179.9203         estimate D2E/DX2                !
 ! D57   D(7,9,11,12)         -179.8657         estimate D2E/DX2                !
 ! D58   D(7,9,11,55)            0.2956         estimate D2E/DX2                !
 ! D59   D(15,9,11,12)           0.1036         estimate D2E/DX2                !
 ! D60   D(15,9,11,55)        -179.7352         estimate D2E/DX2                !
 ! D61   D(7,9,15,14)          179.8825         estimate D2E/DX2                !
 ! D62   D(7,9,15,30)           -0.1066         estimate D2E/DX2                !
 ! D63   D(11,9,15,14)          -0.0867         estimate D2E/DX2                !
 ! D64   D(11,9,15,30)         179.9242         estimate D2E/DX2                !
 ! D65   D(9,11,12,13)          -0.0574         estimate D2E/DX2                !
 ! D66   D(9,11,12,29)         179.954          estimate D2E/DX2                !
 ! D67   D(55,11,12,13)        179.7848         estimate D2E/DX2                !
 ! D68   D(55,11,12,29)         -0.2039         estimate D2E/DX2                !
 ! D69   D(9,11,55,16)         -32.5165         estimate D2E/DX2                !
 ! D70   D(12,11,55,16)        147.6441         estimate D2E/DX2                !
 ! D71   D(11,12,13,14)         -0.0143         estimate D2E/DX2                !
 ! D72   D(11,12,13,25)        179.9928         estimate D2E/DX2                !
 ! D73   D(29,12,13,14)        179.9743         estimate D2E/DX2                !
 ! D74   D(29,12,13,25)         -0.0185         estimate D2E/DX2                !
 ! D75   D(12,13,14,15)          0.0316         estimate D2E/DX2                !
 ! D76   D(12,13,14,28)       -179.9725         estimate D2E/DX2                !
 ! D77   D(25,13,14,15)       -179.9756         estimate D2E/DX2                !
 ! D78   D(25,13,14,28)          0.0204         estimate D2E/DX2                !
 ! D79   D(12,13,25,26)        179.9791         estimate D2E/DX2                !
 ! D80   D(12,13,25,61)         -0.0191         estimate D2E/DX2                !
 ! D81   D(14,13,25,26)         -0.0138         estimate D2E/DX2                !
 ! D82   D(14,13,25,61)        179.9881         estimate D2E/DX2                !
 ! D83   D(13,14,15,9)           0.0144         estimate D2E/DX2                !
 ! D84   D(13,14,15,30)       -179.9964         estimate D2E/DX2                !
 ! D85   D(28,14,15,9)        -179.9815         estimate D2E/DX2                !
 ! D86   D(28,14,15,30)          0.0076         estimate D2E/DX2                !
 ! D87   D(13,14,28,27)         -0.0135         estimate D2E/DX2                !
 ! D88   D(13,14,28,64)        179.9878         estimate D2E/DX2                !
 ! D89   D(15,14,28,27)        179.9824         estimate D2E/DX2                !
 ! D90   D(15,14,28,64)         -0.0163         estimate D2E/DX2                !
 ! D91   D(8,16,17,18)           0.0562         estimate D2E/DX2                !
 ! D92   D(8,16,17,31)        -179.9548         estimate D2E/DX2                !
 ! D93   D(55,16,17,18)       -179.7866         estimate D2E/DX2                !
 ! D94   D(55,16,17,31)          0.2024         estimate D2E/DX2                !
 ! D95   D(8,16,55,11)          32.5181         estimate D2E/DX2                !
 ! D96   D(17,16,55,11)       -147.6419         estimate D2E/DX2                !
 ! D97   D(16,17,18,19)          0.0173         estimate D2E/DX2                !
 ! D98   D(16,17,18,21)       -179.9897         estimate D2E/DX2                !
 ! D99   D(31,17,18,19)       -179.9718         estimate D2E/DX2                !
 ! D100  D(31,17,18,21)          0.0212         estimate D2E/DX2                !
 ! D101  D(17,18,19,20)         -0.0325         estimate D2E/DX2                !
 ! D102  D(17,18,19,24)        179.972          estimate D2E/DX2                !
 ! D103  D(21,18,19,20)        179.9745         estimate D2E/DX2                !
 ! D104  D(21,18,19,24)         -0.0209         estimate D2E/DX2                !
 ! D105  D(17,18,21,22)       -179.9797         estimate D2E/DX2                !
 ! D106  D(17,18,21,76)          0.019          estimate D2E/DX2                !
 ! D107  D(19,18,21,22)          0.0132         estimate D2E/DX2                !
 ! D108  D(19,18,21,76)       -179.9881         estimate D2E/DX2                !
 ! D109  D(18,19,20,8)          -0.0172         estimate D2E/DX2                !
 ! D110  D(18,19,20,32)        179.9943         estimate D2E/DX2                !
 ! D111  D(24,19,20,8)         179.9783         estimate D2E/DX2                !
 ! D112  D(24,19,20,32)         -0.0102         estimate D2E/DX2                !
 ! D113  D(18,19,24,23)          0.0145         estimate D2E/DX2                !
 ! D114  D(18,19,24,80)       -179.9869         estimate D2E/DX2                !
 ! D115  D(20,19,24,23)       -179.9809         estimate D2E/DX2                !
 ! D116  D(20,19,24,80)          0.0176         estimate D2E/DX2                !
 ! D117  D(18,21,22,23)          0.0017         estimate D2E/DX2                !
 ! D118  D(18,21,22,77)       -179.9992         estimate D2E/DX2                !
 ! D119  D(76,21,22,23)       -179.997          estimate D2E/DX2                !
 ! D120  D(76,21,22,77)          0.002          estimate D2E/DX2                !
 ! D121  D(21,22,23,24)         -0.0081         estimate D2E/DX2                !
 ! D122  D(21,22,23,79)        179.9928         estimate D2E/DX2                !
 ! D123  D(77,22,23,24)        179.9928         estimate D2E/DX2                !
 ! D124  D(77,22,23,79)         -0.0063         estimate D2E/DX2                !
 ! D125  D(22,23,24,19)          0.0004         estimate D2E/DX2                !
 ! D126  D(22,23,24,80)       -179.9981         estimate D2E/DX2                !
 ! D127  D(79,23,24,19)        179.9995         estimate D2E/DX2                !
 ! D128  D(79,23,24,80)          0.001          estimate D2E/DX2                !
 ! D129  D(13,25,26,27)         -0.0005         estimate D2E/DX2                !
 ! D130  D(13,25,26,62)       -179.9999         estimate D2E/DX2                !
 ! D131  D(61,25,26,27)        179.9976         estimate D2E/DX2                !
 ! D132  D(61,25,26,62)         -0.0018         estimate D2E/DX2                !
 ! D133  D(25,26,27,28)          0.0074         estimate D2E/DX2                !
 ! D134  D(25,26,27,63)       -179.9934         estimate D2E/DX2                !
 ! D135  D(62,26,27,28)       -179.9932         estimate D2E/DX2                !
 ! D136  D(62,26,27,63)          0.0061         estimate D2E/DX2                !
 ! D137  D(26,27,28,14)         -0.0008         estimate D2E/DX2                !
 ! D138  D(26,27,28,64)        179.9979         estimate D2E/DX2                !
 ! D139  D(63,27,28,14)        179.9999         estimate D2E/DX2                !
 ! D140  D(63,27,28,64)         -0.0014         estimate D2E/DX2                !
 ! D141  D(3,33,34,46)          89.886          estimate D2E/DX2                !
 ! D142  D(3,33,34,47)         -90.1445         estimate D2E/DX2                !
 ! D143  D(35,33,34,46)        -30.0807         estimate D2E/DX2                !
 ! D144  D(35,33,34,47)        149.8888         estimate D2E/DX2                !
 ! D145  D(36,33,34,46)       -149.9776         estimate D2E/DX2                !
 ! D146  D(36,33,34,47)         29.9919         estimate D2E/DX2                !
 ! D147  D(3,33,35,37)         -89.8843         estimate D2E/DX2                !
 ! D148  D(3,33,35,38)          90.1478         estimate D2E/DX2                !
 ! D149  D(34,33,35,37)         30.0791         estimate D2E/DX2                !
 ! D150  D(34,33,35,38)       -149.8889         estimate D2E/DX2                !
 ! D151  D(36,33,35,37)        149.9772         estimate D2E/DX2                !
 ! D152  D(36,33,35,38)        -29.9907         estimate D2E/DX2                !
 ! D153  D(33,34,46,50)        179.8658         estimate D2E/DX2                !
 ! D154  D(33,34,46,56)         -0.2953         estimate D2E/DX2                !
 ! D155  D(47,34,46,50)         -0.1037         estimate D2E/DX2                !
 ! D156  D(47,34,46,56)        179.7352         estimate D2E/DX2                !
 ! D157  D(33,34,47,48)       -179.8824         estimate D2E/DX2                !
 ! D158  D(33,34,47,57)          0.1068         estimate D2E/DX2                !
 ! D159  D(46,34,47,48)          0.0871         estimate D2E/DX2                !
 ! D160  D(46,34,47,57)       -179.9237         estimate D2E/DX2                !
 ! D161  D(33,35,37,41)       -179.862          estimate D2E/DX2                !
 ! D162  D(33,35,37,56)          0.2988         estimate D2E/DX2                !
 ! D163  D(38,35,37,41)          0.1059         estimate D2E/DX2                !
 ! D164  D(38,35,37,56)       -179.7334         estimate D2E/DX2                !
 ! D165  D(33,35,38,39)        179.877          estimate D2E/DX2                !
 ! D166  D(33,35,38,59)         -0.1115         estimate D2E/DX2                !
 ! D167  D(37,35,38,39)         -0.0908         estimate D2E/DX2                !
 ! D168  D(37,35,38,59)        179.9207         estimate D2E/DX2                !
 ! D169  D(35,37,41,40)         -0.0564         estimate D2E/DX2                !
 ! D170  D(35,37,41,60)        179.9545         estimate D2E/DX2                !
 ! D171  D(56,37,41,40)        179.7862         estimate D2E/DX2                !
 ! D172  D(56,37,41,60)         -0.2028         estimate D2E/DX2                !
 ! D173  D(35,37,56,46)        -32.5181         estimate D2E/DX2                !
 ! D174  D(41,37,56,46)        147.6419         estimate D2E/DX2                !
 ! D175  D(35,38,39,40)          0.0168         estimate D2E/DX2                !
 ! D176  D(35,38,39,42)       -179.9787         estimate D2E/DX2                !
 ! D177  D(59,38,39,40)       -179.9947         estimate D2E/DX2                !
 ! D178  D(59,38,39,42)          0.0098         estimate D2E/DX2                !
 ! D179  D(38,39,40,41)          0.0325         estimate D2E/DX2                !
 ! D180  D(38,39,40,45)       -179.9745         estimate D2E/DX2                !
 ! D181  D(42,39,40,41)       -179.972          estimate D2E/DX2                !
 ! D182  D(42,39,40,45)          0.021          estimate D2E/DX2                !
 ! D183  D(38,39,42,43)        179.9811         estimate D2E/DX2                !
 ! D184  D(38,39,42,69)         -0.0173         estimate D2E/DX2                !
 ! D185  D(40,39,42,43)         -0.0144         estimate D2E/DX2                !
 ! D186  D(40,39,42,69)        179.9872         estimate D2E/DX2                !
 ! D187  D(39,40,41,37)         -0.017          estimate D2E/DX2                !
 ! D188  D(39,40,41,60)        179.9721         estimate D2E/DX2                !
 ! D189  D(45,40,41,37)        179.99           estimate D2E/DX2                !
 ! D190  D(45,40,41,60)         -0.0209         estimate D2E/DX2                !
 ! D191  D(39,40,45,44)         -0.0137         estimate D2E/DX2                !
 ! D192  D(39,40,45,78)        179.9878         estimate D2E/DX2                !
 ! D193  D(41,40,45,44)        179.9793         estimate D2E/DX2                !
 ! D194  D(41,40,45,78)         -0.0191         estimate D2E/DX2                !
 ! D195  D(39,42,43,44)         -0.0005         estimate D2E/DX2                !
 ! D196  D(39,42,43,70)       -179.9997         estimate D2E/DX2                !
 ! D197  D(69,42,43,44)        179.9979         estimate D2E/DX2                !
 ! D198  D(69,42,43,70)         -0.0013         estimate D2E/DX2                !
 ! D199  D(42,43,44,45)          0.0079         estimate D2E/DX2                !
 ! D200  D(42,43,44,71)       -179.9929         estimate D2E/DX2                !
 ! D201  D(70,43,44,45)       -179.9929         estimate D2E/DX2                !
 ! D202  D(70,43,44,71)          0.0063         estimate D2E/DX2                !
 ! D203  D(43,44,45,40)         -0.0012         estimate D2E/DX2                !
 ! D204  D(43,44,45,78)        179.9973         estimate D2E/DX2                !
 ! D205  D(71,44,45,40)        179.9995         estimate D2E/DX2                !
 ! D206  D(71,44,45,78)         -0.002          estimate D2E/DX2                !
 ! D207  D(34,46,50,49)          0.057          estimate D2E/DX2                !
 ! D208  D(34,46,50,58)       -179.9544         estimate D2E/DX2                !
 ! D209  D(56,46,50,49)       -179.7853         estimate D2E/DX2                !
 ! D210  D(56,46,50,58)          0.2033         estimate D2E/DX2                !
 ! D211  D(34,46,56,37)         32.5163         estimate D2E/DX2                !
 ! D212  D(50,46,56,37)       -147.6441         estimate D2E/DX2                !
 ! D213  D(34,47,48,49)         -0.0146         estimate D2E/DX2                !
 ! D214  D(34,47,48,51)        179.9813         estimate D2E/DX2                !
 ! D215  D(57,47,48,49)        179.9963         estimate D2E/DX2                !
 ! D216  D(57,47,48,51)         -0.0079         estimate D2E/DX2                !
 ! D217  D(47,48,49,50)         -0.032          estimate D2E/DX2                !
 ! D218  D(47,48,49,54)        179.9753         estimate D2E/DX2                !
 ! D219  D(51,48,49,50)        179.9722         estimate D2E/DX2                !
 ! D220  D(51,48,49,54)         -0.0205         estimate D2E/DX2                !
 ! D221  D(47,48,51,52)       -179.9819         estimate D2E/DX2                !
 ! D222  D(47,48,51,65)          0.0168         estimate D2E/DX2                !
 ! D223  D(49,48,51,52)          0.014          estimate D2E/DX2                !
 ! D224  D(49,48,51,65)       -179.9874         estimate D2E/DX2                !
 ! D225  D(48,49,50,46)          0.015          estimate D2E/DX2                !
 ! D226  D(48,49,50,58)       -179.9737         estimate D2E/DX2                !
 ! D227  D(54,49,50,46)       -179.9923         estimate D2E/DX2                !
 ! D228  D(54,49,50,58)          0.019          estimate D2E/DX2                !
 ! D229  D(48,49,54,53)          0.0134         estimate D2E/DX2                !
 ! D230  D(48,49,54,68)       -179.9881         estimate D2E/DX2                !
 ! D231  D(50,49,54,53)       -179.9793         estimate D2E/DX2                !
 ! D232  D(50,49,54,68)          0.0192         estimate D2E/DX2                !
 ! D233  D(48,51,52,53)          0.0005         estimate D2E/DX2                !
 ! D234  D(48,51,52,66)        179.9997         estimate D2E/DX2                !
 ! D235  D(65,51,52,53)       -179.9981         estimate D2E/DX2                !
 ! D236  D(65,51,52,66)          0.0011         estimate D2E/DX2                !
 ! D237  D(51,52,53,54)         -0.0076         estimate D2E/DX2                !
 ! D238  D(51,52,53,67)        179.9933         estimate D2E/DX2                !
 ! D239  D(66,52,53,54)        179.9932         estimate D2E/DX2                !
 ! D240  D(66,52,53,67)         -0.006          estimate D2E/DX2                !
 ! D241  D(52,53,54,49)          0.001          estimate D2E/DX2                !
 ! D242  D(52,53,54,68)       -179.9975         estimate D2E/DX2                !
 ! D243  D(67,53,54,49)       -179.9998         estimate D2E/DX2                !
 ! D244  D(67,53,54,68)          0.0017         estimate D2E/DX2                !
 --------------------------------------------------------------------------------
 Trust Radius=3.00D-01 FncErr=1.00D-07 GrdErr=1.00D-06 EigMax=2.50D+02 EigMin=1.00D-04
 Number of steps in this run=    480 maximum allowed number of steps=    480.
 GradGradGradGradGradGradGradGradGradGradGradGradGradGradGradGradGradGrad

 Leave Link  103 at Tue Sep 19 20:25:51 2023, MaxMem=  2013265920 cpu:               4.2 elap:               0.1
 (Enter /soft/gaussian/16-c.01/g16/l202.exe)
 Stoichiometry    C48H22O10
 Framework group  C1[X(C48H22O10)]
 Deg. of freedom   234
 Full point group                 C1      NOp   1
 Largest Abelian subgroup         C1      NOp   1
 Largest concise Abelian subgroup C1      NOp   1
                         Standard orientation:                         
 ---------------------------------------------------------------------
 Center     Atomic      Atomic             Coordinates (Angstroms)
 Number     Number       Type             X           Y           Z
 ---------------------------------------------------------------------
      1          6           0        0.677654   -0.663141   -0.066298
      2          6           0       -0.677538   -0.663263   -0.066296
      3          6           0       -1.447603    0.009910   -1.217566
      4          6           0       -0.770065    0.602542   -2.230632
      5          6           0        0.769940    0.602699   -2.230626
      6          6           0        1.447591    0.010191   -1.217564
      7          6           0        2.987588    0.010175   -1.217598
      8          6           0        3.504602    1.250487   -0.482165
      9          6           0        3.504454   -1.238444   -0.496268
     10          1           0        3.342097    0.015886   -2.227148
     11          6           0        3.729828   -1.200106    0.840737
     12          6           0        4.252730   -2.458255    1.560552
     13          6           0        4.516545   -3.751567    0.767099
     14          6           0        4.288839   -3.786106   -0.567525
     15          6           0        3.766960   -2.531519   -1.290258
     16          6           0        3.729998    1.196955    0.854317
     17          6           0        4.253129    2.446771    1.588341
     18          6           0        4.517175    3.748945    0.809600
     19          6           0        4.289413    3.798670   -0.524536
     20          6           0        3.767259    2.552459   -1.261434
     21          6           0        5.040217    4.994971    1.548229
     22          6           0        5.272275    6.141114    0.863306
     23          6           0        5.012880    6.197468   -0.653622
     24          6           0        4.552752    5.100837   -1.303348
     25          6           0        5.039291   -5.006003    1.491567
     26          6           0        5.271132   -6.144353    0.793694
     27          6           0        5.011814   -6.183435   -0.723789
     28          6           0        4.551956   -5.079405   -1.361053
     29          8           0        4.464650   -2.428915    2.800632
     30          8           0        3.554923   -2.562337   -2.530283
     31          8           0        4.465055    2.403337    2.828007
     32          8           0        3.555132    2.597396   -2.501012
     33          6           0       -2.987601    0.009582   -1.217598
     34          6           0       -3.504201   -1.239061   -0.496120
     35          6           0       -3.504868    1.249870   -0.482310
     36          1           0       -3.342115    0.015111   -2.227148
     37          6           0       -3.730246    1.196458    0.854177
     38          6           0       -3.767801    2.551688   -1.261745
     39          6           0       -4.290202    3.797886   -0.525003
     40          6           0       -4.517947    3.748283    0.809140
     41          6           0       -4.253633    2.446260    1.588044
     42          6           0       -4.553808    5.099905   -1.303979
     43          6           0       -5.014151    6.196527   -0.654389
     44          6           0       -5.273524    6.140311    0.862549
     45          6           0       -5.041238    4.994299    1.547613
     46          6           0       -3.729569   -1.200605    0.840883
     47          6           0       -3.766442   -2.532290   -1.289947
     48          6           0       -4.288057   -3.786895   -0.567053
     49          6           0       -4.515762   -3.752235    0.767568
     50          6           0       -4.252201   -2.458775    1.560859
     51          6           0       -4.550914   -5.080346   -1.360416
     52          6           0       -5.010550   -6.184386   -0.723011
     53          6           0       -5.269870   -6.145165    0.794469
     54          6           0       -5.038248   -5.006684    1.492197
     55          8           0        3.486779   -0.005849    1.604665
     56          8           0       -3.486767   -0.006202    1.604666
     57          8           0       -3.554402   -2.563215   -2.529970
     58          8           0       -4.464109   -2.429333    2.800939
     59          8           0       -3.555696    2.596507   -2.501331
     60          8           0       -4.465550    2.402940    2.827716
     61          1           0        5.219417   -4.978805    2.545945
     62          1           0        5.634328   -7.015923    1.297038
     63          1           0        5.194712   -7.082165   -1.274910
     64          1           0        4.371728   -5.106283   -2.415421
     65          1           0       -4.370681   -5.107319   -2.414781
     66          1           0       -5.193273   -7.083220   -1.274018
     67          1           0       -5.632890   -7.016743    1.297924
     68          1           0       -5.218371   -4.979388    2.546575
     69          1           0       -4.373542    5.138687   -2.357971
     70          1           0       -5.197394    7.101310   -1.195397
     71          1           0       -5.637107    7.006026    1.375625
     72          1           0        1.212698   -1.130891    0.733601
     73          1           0       -1.212492   -1.131094    0.733611
     74          1           0       -1.305110    1.070338   -3.030503
     75          1           0        1.304900    1.070609   -3.030488
     76          1           0        5.220386    4.955773    2.602223
     77          1           0        5.635689    7.006838    1.376488
     78          1           0       -5.221396    4.955195    2.601613
     79          1           0        5.195940    7.102354   -1.194520
     80          1           0        4.372466    5.139714   -2.357333
 ---------------------------------------------------------------------
 Rotational constants (GHZ):           0.0441440           0.0349630           0.0226932
 Leave Link  202 at Tue Sep 19 20:25:51 2023, MaxMem=  2013265920 cpu:               1.8 elap:               0.1
 (Enter /soft/gaussian/16-c.01/g16/l301.exe)
 Standard basis: 6-31+G(2df,p) (6D, 7F)
 Ernie: Thresh=  0.10000D-02 Tol=  0.10000D-05 Strict=F.
 There are  2140 symmetry adapted cartesian basis functions of A   symmetry.
 There are  1966 symmetry adapted basis functions of A   symmetry.
  1966 basis functions,  2938 primitive gaussians,  2140 cartesian basis functions
   195 alpha electrons      195 beta electrons
       nuclear repulsion energy      7220.8039590824 Hartrees.
 IExCor=  402 DFT=T Ex+Corr=B3LYP ExCW=0 ScaHFX=  0.200000
 ScaDFX=  0.800000  0.720000  1.000000  0.810000 ScalE2=  1.000000  1.000000
 IRadAn=      5 IRanWt=     -1 IRanGd=            0 ICorTp=0 IEmpDi=131
 NAtoms=   80 NActive=   80 NUniq=   80 SFac= 1.00D+00 NAtFMM=   60 NAOKFM=T Big=T
 Integral buffers will be    131072 words long.
 Raffenetti 2 integral format.
 Two-electron integral symmetry is turned on.
 R6Disp:  Grimme-D3 Dispersion energy=       -0.0965060213 Hartrees.
 Nuclear repulsion after empirical dispersion term =     7220.7074530611 Hartrees.
 Leave Link  301 at Tue Sep 19 20:25:52 2023, MaxMem=  2013265920 cpu:               6.6 elap:               0.1
 (Enter /soft/gaussian/16-c.01/g16/l302.exe)
 NPDir=0 NMtPBC=     1 NCelOv=     1 NCel=       1 NClECP=     1 NCelD=      1
         NCelK=      1 NCelE2=     1 NClLst=     1 CellRange=     0.0.
 One-electron integrals computed using PRISM.
 One-electron integral symmetry used in STVInt
 NBasis=  1966 RedAO= T EigKep=  1.04D-06  NBF=  1966
 NBsUse=  1946 1.00D-06 EigRej=  9.15D-07 NBFU=  1946
 Precomputing XC quadrature grid using
 IXCGrd= 4 IRadAn=           5 IRanWt=          -1 IRanGd=           0 AccXCQ= 0.00D+00.
 Generated NRdTot=       0 NPtTot=           0 NUsed=           0 NTot=          32
 NSgBfM=  2034  2033  2033  2034  2034 MxSgAt=    80 MxSgA2=    80.
 Leave Link  302 at Tue Sep 19 20:26:18 2023, MaxMem=  2013265920 cpu:            1663.8 elap:              26.0
 (Enter /soft/gaussian/16-c.01/g16/l303.exe)
 DipDrv:  MaxL=1.
 Leave Link  303 at Tue Sep 19 20:26:20 2023, MaxMem=  2013265920 cpu:              87.3 elap:               1.8
 (Enter /soft/gaussian/16-c.01/g16/l401.exe)
 ExpMin= 4.38D-02 ExpMax= 5.48D+03 ExpMxC= 8.25D+02 IAcc=3 IRadAn=         5 AccDes= 0.00D+00
 Harris functional with IExCor=  402 and IRadAn=       5 diagonalized for initial guess.
 HarFok:  IExCor=  402 AccDes= 0.00D+00 IRadAn=         5 IDoV= 1 UseB2=F ITyADJ=14
 ICtDFT=  3500011 ScaDFX=  1.000000  1.000000  1.000000  1.000000
 FoFCou: FMM=F IPFlag=           0 FMFlag=      100000 FMFlg1=        2001
         NFxFlg=           0 DoJE=T BraDBF=F KetDBF=T FulRan=T
         wScrn=  0.000000 ICntrl=       500 IOpCl=  0 I1Cent=   200000004 NGrid=           0
         NMat0=    1 NMatS0=      1 NMatT0=    0 NMatD0=    1 NMtDS0=    0 NMtDT0=    0
 Petite list used in FoFCou.
 Harris En= -2594.58550507333    
 JPrj=0 DoOrth=F DoCkMO=F.
 Initial guess <Sx>= 0.0000 <Sy>= 0.0000 <Sz>= 0.0000 <S**2>=-0.0000 S=-0.0000
 Leave Link  401 at Tue Sep 19 20:26:46 2023, MaxMem=  2013265920 cpu:            1699.0 elap:              26.6
 (Enter /soft/gaussian/16-c.01/g16/l502.exe)
 Integral symmetry usage will be decided dynamically.
 UHF open shell SCF:
 Using DIIS extrapolation, IDIIS=    10.
 NGot=  2013265920 LenX=  2003949996 LenY=  1999368256
 Requested convergence on RMS density matrix=1.00D-08 within 128 cycles.
 Requested convergence on MAX density matrix=1.00D-06.
 Requested convergence on             energy=1.00D-06.
 Level shift goal  0.100 maximum shift  0.100.
 No special actions if energy rises.
 Dynamic level shift is on during FON iterations.
 Fock matrices will be formed incrementally for  20 cycles.

 Cycle   1  Pass 1  IDiag  1:
 FoFJK:  IHMeth= 1 ICntrl=       0 DoSepK=F KAlg= 0 I1Cent=           0 FoldK=F
 IRaf= 650000000 NMat=       1 IRICut=       1 DoRegI=T DoRafI=F ISym2E= 0 IDoP0=0 IntGTp=1.
 FoFCou: FMM=T IPFlag=           0 FMFlag=      100000 FMFlg1=        2001
         NFxFlg=           0 DoJE=F BraDBF=F KetDBF=F FulRan=T
         wScrn=  0.000000 ICntrl=         0 IOpCl=  1 I1Cent=           0 NGrid=           0
         NMat0=    1 NMatS0=      1 NMatT0=    0 NMatD0=    1 NMtDS0=    0 NMtDT0=    0
 Symmetry not used in FoFCou.
 FMM levels:  10  Number of levels for PrismC:   9
 E= -2593.59130673647    
 DIIS: error= 2.19D-02 at cycle   1 NSaved=   1.
 NSaved= 1 IEnMin= 1 EnMin= -2593.59130673647     IErMin= 1 ErrMin= 2.19D-02
 ErrMax= 2.19D-02  0.00D+00 EMaxC= 1.00D+00 BMatC= 5.08D+00 BMatP= 5.08D+00
 IDIUse=1 WtCom= 1.00D+00 WtEn= 0.00D+00
 Coeff-Com:  0.100D+01
 Coeff:      0.100D+01
 Gap=     0.157 Goal=     0.100 Shift=    0.000
 T= 1308. Gap= 0.061 NK=0 IS=    1 IE= 1946 IFin=  199
          NO(<0.9)=   0  NV(>0.1)=   0    195.00e < EF      0.00e >EF  Err=2.8D-14
 Gap=     0.157 Goal=     0.100 Shift=    0.000
 T= 1308. Gap= 0.061 NK=0 IS=    1 IE= 1946 IFin=  199
          NO(<0.9)=   0  NV(>0.1)=   0    195.00e < EF      0.00e >EF  Err=2.8D-14
 GapD=    0.157 DampG=1.000 DampE=0.500 DampFc=0.5000 IDamp=-1.
 Damping current iteration by 5.00D-01
 RMSDP=2.45D-02 MaxDP=3.51D+00              OVMax= 3.66D-01

 Cycle   2  Pass 1  IDiag  1:
 RMSU=  1.22D-02    CP:  1.02D+00
 E= -2593.53815691192     Delta-E=        0.053149824544 Rises=F Damp=T
 DIIS: error= 1.37D-02 at cycle   2 NSaved=   2.
 NSaved= 2 IEnMin= 1 EnMin= -2593.59130673647     IErMin= 2 ErrMin= 1.37D-02
 ErrMax= 1.37D-02  0.00D+00 EMaxC= 1.00D+00 BMatC= 2.06D+00 BMatP= 5.08D+00
 IDIUse=1 WtCom= 1.00D+00 WtEn= 0.00D+00
 Coeff-Com:  0.353D+00 0.647D+00
 Coeff:      0.353D+00 0.647D+00
 Gap=     0.163 Goal=   None    Shift=    0.000
 T= 1228. Gap= 0.111 NK=3 IS=  196 IE=  205 IFin=  195
          NO(<0.9)=   0  NV(>0.1)=   0    195.00e < EF      0.00e >EF  Err=0.0D+00
 Gap=     0.163 Goal=   None    Shift=    0.000
 T= 1228. Gap= 0.111 NK=3 IS=  196 IE=  205 IFin=  195
          NO(<0.9)=   0  NV(>0.1)=   0    195.00e < EF      0.00e >EF  Err=0.0D+00
 RMSDP=1.33D-02 MaxDP=2.92D+00 DE= 5.31D-02 OVMax= 3.21D-01

 Cycle   3  Pass 1  IDiag  1:
 RMSU=  9.06D-03    CP:  7.88D-01  7.39D-01
 E= -2594.42370641320     Delta-E=       -0.885549501283 Rises=F Damp=F
 DIIS: error= 7.79D-03 at cycle   3 NSaved=   3.
 NSaved= 3 IEnMin= 3 EnMin= -2594.42370641320     IErMin= 3 ErrMin= 7.79D-03
 ErrMax= 7.79D-03  0.00D+00 EMaxC= 1.00D+00 BMatC= 1.14D+00 BMatP= 2.06D+00
 IDIUse=1 WtCom= 1.00D+00 WtEn= 0.00D+00
 Coeff-Com:  0.745D-01 0.419D+00 0.507D+00
 Coeff:      0.745D-01 0.419D+00 0.507D+00
 Gap=     0.139 Goal=     0.100 Shift=    0.000
 T= 1059. Gap= 0.119 NK=3 IS=  196 IE=  208 IFin=  195
          NO(<0.9)=   0  NV(>0.1)=   0    195.00e < EF      0.00e >EF  Err=0.0D+00
 Gap=     0.139 Goal=     0.100 Shift=    0.000
 T= 1059. Gap= 0.119 NK=3 IS=  196 IE=  208 IFin=  195
          NO(<0.9)=   0  NV(>0.1)=   0    195.00e < EF      0.00e >EF  Err=0.0D+00
 GapD=    0.139 DampG=1.000 DampE=1.000 DampFc=1.0000 IDamp=-1.
 RMSDP=7.08D-03 MaxDP=1.70D+00 DE=-8.86D-01 OVMax= 9.81D-02

 Cycle   4  Pass 1  IDiag  1:
 RMSU=  3.25D-03    CP:  7.27D-01  6.14D-01  3.82D-01
 E= -2594.67581357187     Delta-E=       -0.252107158663 Rises=F Damp=F
 DIIS: error= 2.64D-03 at cycle   4 NSaved=   4.
 NSaved= 4 IEnMin= 4 EnMin= -2594.67581357187     IErMin= 4 ErrMin= 2.64D-03
 ErrMax= 2.64D-03  0.00D+00 EMaxC= 1.00D+00 BMatC= 1.09D-01 BMatP= 1.14D+00
 IDIUse=1 WtCom= 1.00D+00 WtEn= 0.00D+00
 Coeff-Com:  0.310D-02 0.158D+00 0.289D+00 0.550D+00
 Coeff:      0.310D-02 0.158D+00 0.289D+00 0.550D+00
 Gap=     0.117 Goal=     0.100 Shift=    0.000
 T=  707. Gap= 0.116 NK=3 IS=  196 IE=  207 IFin=  195
          NO(<0.9)=   0  NV(>0.1)=   0    195.00e < EF      0.00e >EF  Err=0.0D+00
 Gap=     0.117 Goal=     0.100 Shift=    0.000
 T=  707. Gap= 0.116 NK=3 IS=  196 IE=  207 IFin=  195
          NO(<0.9)=   0  NV(>0.1)=   0    195.00e < EF      0.00e >EF  Err=0.0D+00
 GapD=    0.117 DampG=1.000 DampE=1.000 DampFc=1.0000 IDamp=-1.
 RMSDP=2.04D-03 MaxDP=3.67D-01 DE=-2.52D-01 OVMax= 4.56D-02

 Cycle   5  Pass 1  IDiag  1:
 RMSU=  1.09D-03    CP:  7.49D-01  6.71D-01  4.92D-01  7.45D-01
 E= -2594.69431124920     Delta-E=       -0.018497677329 Rises=F Damp=F
 DIIS: error= 2.03D-03 at cycle   5 NSaved=   5.
 NSaved= 5 IEnMin= 5 EnMin= -2594.69431124920     IErMin= 5 ErrMin= 2.03D-03
 ErrMax= 2.03D-03  0.00D+00 EMaxC= 1.00D+00 BMatC= 3.74D-02 BMatP= 1.09D-01
 IDIUse=1 WtCom= 1.00D+00 WtEn= 0.00D+00
 Coeff-Com: -0.672D-02 0.539D-01 0.138D+00 0.395D+00 0.420D+00
 Coeff:     -0.672D-02 0.539D-01 0.138D+00 0.395D+00 0.420D+00
 Gap=     0.113 Goal=     0.100 Shift=    0.000
 T=  309. Gap= 0.113 NK=3 IS=  196 IE=  207 IFin=  195
          NO(<0.9)=   0  NV(>0.1)=   0    195.00e < EF      0.00e >EF  Err=0.0D+00
 Gap=     0.113 Goal=     0.100 Shift=    0.000
 T=  309. Gap= 0.113 NK=3 IS=  196 IE=  207 IFin=  195
          NO(<0.9)=   0  NV(>0.1)=   0    195.00e < EF      0.00e >EF  Err=0.0D+00
 GapD=    0.113 DampG=1.000 DampE=1.000 DampFc=1.0000 IDamp=-1.
 RMSDP=6.54D-04 MaxDP=1.36D-01 DE=-1.85D-02 OVMax= 2.92D-02

 Cycle   6  Pass 1  IDiag  1:
 RMSU=  4.57D-04    CP:  7.51D-01  6.89D-01  4.66D-01  7.12D-01  7.16D-01
 E= -2594.70163667877     Delta-E=       -0.007325429571 Rises=F Damp=F
 DIIS: error= 7.27D-04 at cycle   6 NSaved=   6.
 NSaved= 6 IEnMin= 6 EnMin= -2594.70163667877     IErMin= 6 ErrMin= 7.27D-04
 ErrMax= 7.27D-04  0.00D+00 EMaxC= 1.00D+00 BMatC= 7.04D-03 BMatP= 3.74D-02
 IDIUse=1 WtCom= 1.00D+00 WtEn= 0.00D+00
 Coeff-Com: -0.524D-02 0.978D-02 0.461D-01 0.183D+00 0.318D+00 0.448D+00
 Coeff:     -0.524D-02 0.978D-02 0.461D-01 0.183D+00 0.318D+00 0.448D+00
 Gap=     0.116 Goal=     0.100 Shift=    0.000
 Gap=     0.116 Goal=     0.100 Shift=    0.000
 RMSDP=2.77D-04 MaxDP=5.50D-02 DE=-7.33D-03 OVMax= 1.14D-02

 Cycle   7  Pass 1  IDiag  1:
 RMSU=  1.21D-04    CP:  7.49D-01  6.79D-01  4.81D-01  7.30D-01  7.03D-01
                    CP:  6.84D-01
 E= -2594.70327771362     Delta-E=       -0.001641034853 Rises=F Damp=F
 DIIS: error= 1.09D-04 at cycle   7 NSaved=   7.
 NSaved= 7 IEnMin= 7 EnMin= -2594.70327771362     IErMin= 7 ErrMin= 1.09D-04
 ErrMax= 1.09D-04  0.00D+00 EMaxC= 1.00D+00 BMatC= 3.03D-04 BMatP= 7.04D-03
 IDIUse=1 WtCom= 1.00D+00 WtEn= 0.00D+00
 Coeff-Com: -0.234D-02 0.123D-02 0.149D-01 0.720D-01 0.150D+00 0.251D+00
 Coeff-Com:  0.512D+00
 Coeff:     -0.234D-02 0.123D-02 0.149D-01 0.720D-01 0.150D+00 0.251D+00
 Coeff:      0.512D+00
 Gap=     0.116 Goal=     0.100 Shift=    0.000
 Gap=     0.116 Goal=     0.100 Shift=    0.000
 RMSDP=8.54D-05 MaxDP=2.96D-02 DE=-1.64D-03 OVMax= 2.94D-03

 Cycle   8  Pass 1  IDiag  1:
 RMSU=  4.98D-05    CP:  7.49D-01  6.79D-01  4.78D-01  7.40D-01  7.07D-01
                    CP:  6.85D-01  6.09D-01
 E= -2594.70334015359     Delta-E=       -0.000062439973 Rises=F Damp=F
 DIIS: error= 6.63D-05 at cycle   8 NSaved=   8.
 NSaved= 8 IEnMin= 8 EnMin= -2594.70334015359     IErMin= 8 ErrMin= 6.63D-05
 ErrMax= 6.63D-05  0.00D+00 EMaxC= 1.00D+00 BMatC= 6.97D-05 BMatP= 3.03D-04
 IDIUse=1 WtCom= 1.00D+00 WtEn= 0.00D+00
 Coeff-Com: -0.752D-03-0.733D-03 0.328D-02 0.211D-01 0.556D-01 0.101D+00
 Coeff-Com:  0.350D+00 0.471D+00
 Coeff:     -0.752D-03-0.733D-03 0.328D-02 0.211D-01 0.556D-01 0.101D+00
 Coeff:      0.350D+00 0.471D+00
 Gap=     0.116 Goal=     0.100 Shift=    0.000
 Gap=     0.116 Goal=     0.100 Shift=    0.000
 RMSDP=3.37D-05 MaxDP=4.68D-03 DE=-6.24D-05 OVMax= 9.19D-04

 Cycle   9  Pass 1  IDiag  1:
 RMSU=  1.85D-05    CP:  7.48D-01  6.80D-01  4.77D-01  7.42D-01  7.11D-01
                    CP:  6.62D-01  6.50D-01  5.70D-01
 E= -2594.70335735549     Delta-E=       -0.000017201899 Rises=F Damp=F
 DIIS: error= 1.20D-05 at cycle   9 NSaved=   9.
 NSaved= 9 IEnMin= 9 EnMin= -2594.70335735549     IErMin= 9 ErrMin= 1.20D-05
 ErrMax= 1.20D-05  0.00D+00 EMaxC= 1.00D+00 BMatC= 4.11D-06 BMatP= 6.97D-05
 IDIUse=1 WtCom= 1.00D+00 WtEn= 0.00D+00
 Coeff-Com: -0.308D-04-0.610D-03 0.115D-03 0.196D-02 0.104D-01 0.198D-01
 Coeff-Com:  0.118D+00 0.233D+00 0.616D+00
 Coeff:     -0.308D-04-0.610D-03 0.115D-03 0.196D-02 0.104D-01 0.198D-01
 Coeff:      0.118D+00 0.233D+00 0.616D+00
 Gap=     0.116 Goal=     0.100 Shift=    0.000
 Gap=     0.116 Goal=     0.100 Shift=    0.000
 RMSDP=7.83D-06 MaxDP=1.47D-03 DE=-1.72D-05 OVMax= 2.44D-04

 Cycle  10  Pass 1  IDiag  1:
 RMSU=  4.47D-06    CP:  7.49D-01  6.80D-01  4.77D-01  7.42D-01  7.12D-01
                    CP:  6.72D-01  6.70D-01  6.04D-01  9.49D-01
 E= -2594.70335806660     Delta-E=       -0.000000711105 Rises=F Damp=F
 DIIS: error= 7.90D-06 at cycle  10 NSaved=  10.
 NSaved=10 IEnMin=10 EnMin= -2594.70335806660     IErMin=10 ErrMin= 7.90D-06
 ErrMax= 7.90D-06  0.00D+00 EMaxC= 1.00D+00 BMatC= 1.32D-06 BMatP= 4.11D-06
 IDIUse=1 WtCom= 1.00D+00 WtEn= 0.00D+00
 Coeff-Com:  0.883D-04-0.362D-03-0.287D-03-0.140D-02 0.565D-04 0.621D-03
 Coeff-Com:  0.369D-01 0.939D-01 0.412D+00 0.458D+00
 Coeff:      0.883D-04-0.362D-03-0.287D-03-0.140D-02 0.565D-04 0.621D-03
 Coeff:      0.369D-01 0.939D-01 0.412D+00 0.458D+00
 Gap=     0.116 Goal=     0.100 Shift=    0.000
 Gap=     0.116 Goal=     0.100 Shift=    0.000
 RMSDP=3.17D-06 MaxDP=5.91D-04 DE=-7.11D-07 OVMax= 1.01D-04

 Cycle  11  Pass 1  IDiag  1:
 RMSU=  1.68D-06    CP:  7.49D-01  6.80D-01  4.78D-01  7.42D-01  7.13D-01
                    CP:  6.71D-01  6.65D-01  6.27D-01  9.44D-01  8.60D-01
 E= -2594.70335833666     Delta-E=       -0.000000270062 Rises=F Damp=F
[...]
   D143      -0.32775  -0.00001   0.02697  -0.01883   0.00820  -0.31956
   D144       2.81485  -0.00002   0.02192  -0.00463   0.01732   2.83217
   D145      -2.41148  -0.00002   0.02755  -0.02304   0.00465  -2.40683
   D146       0.73113  -0.00003   0.02250  -0.00884   0.01377   0.74489
   D147      -1.81156   0.00169  -0.02873   0.03130   0.00258  -1.80898
   D148       1.31887   0.00171  -0.02577   0.02655   0.00080   1.31967
   D149       0.34393  -0.00029  -0.02657   0.01589  -0.01073   0.33320
   D150      -2.80883  -0.00028  -0.02361   0.01114  -0.01250  -2.82133
   D151       2.42373   0.00004  -0.02663   0.01861  -0.00813   2.41560
   D152      -0.72903   0.00005  -0.02367   0.01385  -0.00990  -0.73893
   D153      -3.07242   0.00028   0.00305   0.01095   0.01392  -3.05850
   D154       0.06158   0.00037  -0.00149   0.01144   0.00991   0.07148
   D155       0.06814   0.00029   0.00820  -0.00358   0.00458   0.07272
   D156      -3.08105   0.00038   0.00366  -0.00309   0.00057  -3.08049
   D157       3.08879  -0.00093  -0.01953  -0.00886  -0.02840   3.06039
   D158      -0.10387   0.00108   0.02345  -0.00808   0.01528  -0.08859
   D159      -0.05180  -0.00094  -0.02456   0.00519  -0.01939  -0.07118
   D160       3.03873   0.00107   0.01842   0.00596   0.02430   3.06303
   D161       3.05128  -0.00033  -0.00418  -0.01057  -0.01466   3.03662
   D162      -0.09572   0.00017   0.00057  -0.00540  -0.00473  -0.10046
   D163      -0.07891  -0.00035  -0.00716  -0.00575  -0.01287  -0.09178
   D164       3.05728   0.00015  -0.00241  -0.00058  -0.00295   3.05433
   D165      -3.05303   0.00040   0.00388   0.01974   0.02367  -3.02936
   D166       0.11397  -0.00026  -0.00540   0.01257   0.00722   0.12119
   D167       0.07751   0.00041   0.00689   0.01502   0.02193   0.09944
   D168      -3.03868  -0.00025  -0.00239   0.00785   0.00548  -3.03320
   D169       0.02962   0.00024   0.00471  -0.00543  -0.00071   0.02891
   D170      -3.09152  -0.00021  -0.00312   0.00371   0.00057  -3.09095
   D171      -3.10705  -0.00022   0.00030  -0.01013  -0.00972  -3.11678
   D172       0.05500  -0.00067  -0.00753  -0.00100  -0.00845   0.04655
   D173      -0.21441   0.00030   0.02781  -0.00442   0.02347  -0.19095
   D174       2.92228   0.00075   0.03210   0.00028   0.03244   2.95472
   D175      -0.02887  -0.00042  -0.00456  -0.01349  -0.01807  -0.04694
   D176       3.10517  -0.00026  -0.00429  -0.00814  -0.01246   3.09272
   D177       3.08676   0.00030   0.00479  -0.00604  -0.00122   3.08554
   D178      -0.06238   0.00045   0.00506  -0.00069   0.00439  -0.05799
   D179      -0.01845   0.00031   0.00247   0.00242   0.00488  -0.01357
   D180       3.13127   0.00026   0.00068   0.00567   0.00635   3.13762
   D181       3.13073   0.00015   0.00220  -0.00296  -0.00076   3.12996
   D182      -0.00274   0.00010   0.00042   0.00029   0.00071  -0.00203
   D183      -3.13121  -0.00022  -0.00056  -0.00527  -0.00582  -3.13704
   D184       0.00777  -0.00016  -0.00057  -0.00484  -0.00540   0.00237
   D185       0.00290  -0.00006  -0.00030   0.00004  -0.00026   0.00263
   D186      -3.14130  -0.00000  -0.00030   0.00047   0.00016  -3.14114
   D187       0.02050  -0.00019  -0.00223   0.00701   0.00477   0.02527
   D188       3.14120   0.00027   0.00574  -0.00230   0.00347  -3.13851
   D189      -3.12914  -0.00014  -0.00046   0.00378   0.00331  -3.12584
   D190      -0.00844   0.00032   0.00751  -0.00553   0.00201  -0.00644
   D191       0.00172  -0.00010  -0.00019  -0.00128  -0.00148   0.00024
   D192       3.14023  -0.00004  -0.00026  -0.00063  -0.00090   3.13933
   D193      -3.13190  -0.00015  -0.00195   0.00191  -0.00003  -3.13192
   D194       0.00661  -0.00008  -0.00202   0.00256   0.00055   0.00717
   D195      -0.00204   0.00003  -0.00004   0.00062   0.00058  -0.00146
   D196       3.13827   0.00007  -0.00036   0.00143   0.00107   3.13934
   D197      -3.14095  -0.00003  -0.00003   0.00018   0.00015  -3.14080
   D198      -0.00064   0.00001  -0.00036   0.00099   0.00063  -0.00001
   D199       0.00102  -0.00003   0.00027  -0.00163  -0.00136  -0.00034
   D200       3.14094   0.00003  -0.00034   0.00102   0.00069  -3.14156
   D201      -3.13929  -0.00007   0.00059  -0.00243  -0.00184  -3.14114
   D202       0.00063  -0.00001  -0.00002   0.00022   0.00021   0.00083
   D203      -0.00086   0.00007  -0.00015   0.00195   0.00180   0.00095
   D204      -3.13928   0.00000  -0.00007   0.00128   0.00121  -3.13807
   D205      -3.14078   0.00001   0.00046  -0.00071  -0.00024  -3.14102
   D206       0.00399  -0.00006   0.00053  -0.00138  -0.00084   0.00315
   D207      -0.04039   0.00038   0.01114  -0.00130   0.00983  -0.03056
   D208       3.10302  -0.00013  -0.01060   0.00997  -0.00062   3.10240
   D209       3.10812   0.00030   0.01531  -0.00175   0.01346   3.12157
   D210      -0.03166  -0.00021  -0.00643   0.00952   0.00301  -0.02865
   D211       0.23205  -0.00044  -0.02755   0.00172  -0.02588   0.20617
   D212      -2.91643  -0.00035  -0.03165   0.00218  -0.02949  -2.94592
   D213       0.00979   0.00097   0.02167  -0.00166   0.02002   0.02981
   D214      -3.12795   0.00085   0.01965  -0.00073   0.01895  -3.10900
   D215      -3.07968  -0.00111  -0.02196  -0.00253  -0.02457  -3.10425
   D216       0.06577  -0.00122  -0.02398  -0.00159  -0.02565   0.04012
   D217       0.01605  -0.00032  -0.00246  -0.00332  -0.00578   0.01027
   D218      -3.13461  -0.00027  -0.00237  -0.00064  -0.00301  -3.13762
   D219      -3.12941  -0.00021  -0.00044  -0.00425  -0.00470  -3.13411
   D220       0.00311  -0.00016  -0.00035  -0.00157  -0.00193   0.00118
   D221       3.13545   0.00021   0.00257  -0.00118   0.00139   3.13684
   D222      -0.00383   0.00013   0.00215  -0.00080   0.00135  -0.00249
   D223      -0.00232   0.00010   0.00057  -0.00026   0.00032  -0.00200
   D224       3.14158   0.00002   0.00015   0.00013   0.00028  -3.14132
   D225      -0.00334  -0.00035  -0.01375   0.00480  -0.00896  -0.01229
   D226       3.13640   0.00017   0.00846  -0.00672   0.00172   3.13812
   D227      -3.13595  -0.00040  -0.01385   0.00216  -0.01169   3.13555
   D228       0.00379   0.00012   0.00837  -0.00936  -0.00102   0.00277
   D229      -0.00259   0.00014  -0.00010   0.00303   0.00294   0.00035
   D230      -3.14078   0.00006   0.00039   0.00103   0.00143  -3.13935
   D231       3.13011   0.00019  -0.00001   0.00565   0.00564   3.13575
   D232      -0.00808   0.00011   0.00048   0.00365   0.00413  -0.00395
   D233       0.00102  -0.00003  -0.00035   0.00063   0.00028   0.00129
   D234      -3.13957  -0.00006  -0.00005  -0.00051  -0.00056  -3.14013
   D235       3.14023   0.00006   0.00008   0.00024   0.00032   3.14055
   D236      -0.00035   0.00003   0.00038  -0.00090  -0.00052  -0.00087
   D237      -0.00049   0.00001  -0.00010   0.00083   0.00073   0.00024
   D238       3.14150  -0.00001   0.00023  -0.00103  -0.00081   3.14069
   D239       3.14009   0.00004  -0.00040   0.00197   0.00157  -3.14152
   D240      -0.00111   0.00002  -0.00007   0.00011   0.00003  -0.00108
   D241       0.00128  -0.00006   0.00032  -0.00266  -0.00234  -0.00106
   D242       3.13937   0.00002  -0.00018  -0.00060  -0.00078   3.13859
   D243      -3.14071  -0.00004  -0.00000  -0.00079  -0.00080  -3.14151
   D244      -0.00262   0.00003  -0.00051   0.00126   0.00076  -0.00186
         Item               Value     Threshold  Converged?
 Maximum Force            0.004047     0.000450     NO 
 RMS     Force            0.000716     0.000300     NO 
 Maximum Displacement     0.536742     0.001800     NO 
 RMS     Displacement     0.094643     0.001200     NO 
 Predicted change in Energy=-9.031677D-04
 Lowest energy point so far.  Saving SCF results.
 GradGradGradGradGradGradGradGradGradGradGradGradGradGradGradGradGradGrad

 Leave Link  103 at Wed Sep 20 14:51:05 2023, MaxMem=  2013265920 cpu:              54.0 elap:               1.2
 (Enter /soft/gaussian/16-c.01/g16/l202.exe)
 Stoichiometry    C48H22O10
 Framework group  C1[X(C48H22O10)]
 Deg. of freedom   234
 Full point group                 C1      NOp   1
 RotChk:  IX=0 Diff= 3.54D-04
 Largest Abelian subgroup         C1      NOp   1
 Largest concise Abelian subgroup C1      NOp   1
                         Standard orientation:                         
 ---------------------------------------------------------------------
 Center     Atomic      Atomic             Coordinates (Angstroms)
 Number     Number       Type             X           Y           Z
 ---------------------------------------------------------------------
      1          6           0        0.696131   -0.304829   -0.035643
      2          6           0       -0.696061   -0.304925   -0.035640
      3          6           0       -1.406844   -0.091544   -1.219653
      4          6           0       -0.695738    0.123786   -2.402596
      5          6           0        0.695741    0.123885   -2.402598
      6          6           0        1.406880   -0.091347   -1.219658
      7          6           0        2.937590   -0.050604   -1.220860
      8          6           0        3.417889    1.205943   -0.531184
      9          6           0        3.532941   -1.245259   -0.518363
     10          1           0        3.265583   -0.046110   -2.262645
     11          6           0        4.037910   -1.150993    0.728967
     12          6           0        4.545504   -2.322123    1.509923
     13          6           0        4.505770   -3.638548    0.815448
     14          6           0        4.029337   -3.745329   -0.501485
     15          6           0        3.538171   -2.541933   -1.233887
     16          6           0        3.914003    1.172435    0.723373
     17          6           0        4.282764    2.394336    1.503302
     18          6           0        4.108995    3.695940    0.801186
     19          6           0        3.653928    3.743418   -0.526601
     20          6           0        3.316696    2.489843   -1.261171
     21          6           0        4.416063    4.879661    1.476648
     22          6           0        4.270672    6.104600    0.832131
     23          6           0        3.818916    6.152291   -0.490511
     24          6           0        3.512252    4.975489   -1.168315
     25          6           0        4.957748   -4.776429    1.488738
     26          6           0        4.934661   -6.014218    0.853126
     27          6           0        4.461121   -6.120786   -0.458494
     28          6           0        4.010578   -4.990025   -1.134122
     29          8           0        4.953003   -2.186460    2.645897
     30          8           0        3.155422   -2.602846   -2.391407
     31          8           0        4.676440    2.309798    2.649033
     32          8           0        2.974540    2.502452   -2.433568
     33          6           0       -2.937560   -0.051010   -1.220857
     34          6           0       -3.532757   -1.245704   -0.518295
     35          6           0       -3.418028    1.205512   -0.531252
     36          1           0       -3.265553   -0.046617   -2.262643
     37          6           0       -3.914132    1.172008    0.723309
     38          6           0       -3.317019    2.489384   -1.261314
     39          6           0       -3.654442    3.742953   -0.526821
     40          6           0       -4.109493    3.695489    0.800971
     41          6           0       -4.283050    2.393903    1.503173
     42          6           0       -3.512965    4.975005   -1.168616
     43          6           0       -3.819812    6.151802   -0.490886
     44          6           0       -4.271552    6.104125    0.831762
     45          6           0       -4.416744    4.879205    1.476359
     46          6           0       -4.037736   -1.151435    0.729030
     47          6           0       -3.537823   -2.542417   -1.233750
     48          6           0       -4.028837   -3.745835   -0.501284
     49          6           0       -4.505282   -3.639045    0.815644
     50          6           0       -4.545183   -2.322588    1.510049
     51          6           0       -4.009922   -4.990563   -1.133855
     52          6           0       -4.460323   -6.121344   -0.458167
     53          6           0       -4.933874   -6.014766    0.853447
     54          6           0       -4.957117   -4.776947    1.488994
     55          8           0        4.125817    0.020335    1.412150
     56          8           0       -4.125789    0.019917    1.412151
     57          8           0       -3.155065   -2.603344   -2.391267
     58          8           0       -4.952686   -2.186917    2.646020
     59          8           0       -2.974884    2.501972   -2.433718
     60          8           0       -4.676740    2.309374    2.648900
     61          1           0        5.322985   -4.669745    2.503722
     62          1           0        5.286058   -6.896706    1.377362
     63          1           0        4.443950   -7.086709   -0.952436
     64          1           0        3.638679   -5.050067   -2.150461
     65          1           0       -3.638016   -5.050611   -2.150191
     66          1           0       -4.443031   -7.087291   -0.952058
     67          1           0       -5.285160   -6.897271    1.377731
     68          1           0       -5.322366   -4.670255    2.503973
     69          1           0       -3.160691    4.989127   -2.193572
     70          1           0       -3.706826    7.107708   -0.991668
     71          1           0       -4.510119    7.022433    1.357971
     72          1           0        1.224693   -0.471855    0.897658
     73          1           0       -1.224595   -0.472023    0.897663
     74          1           0       -1.238545    0.305814   -3.323074
     75          1           0        1.238519    0.305988   -3.323078
     76          1           0        4.767600    4.818414    2.500197
     77          1           0        4.509095    7.022911    1.358399
     78          1           0       -4.768265    4.817968    2.499914
     79          1           0        3.705776    7.108211   -0.991231
     80          1           0        3.159970    4.989622   -2.193268
 ---------------------------------------------------------------------
 Rotational constants (GHZ):           0.0463363           0.0390345           0.0246235
 Leave Link  202 at Wed Sep 20 14:51:05 2023, MaxMem=  2013265920 cpu:               1.0 elap:               0.1
 (Enter /soft/gaussian/16-c.01/g16/l301.exe)
 Standard basis: 6-31+G(2df,p) (6D, 7F)
 Ernie: Thresh=  0.10000D-02 Tol=  0.10000D-05 Strict=F.
 There are  2140 symmetry adapted cartesian basis functions of A   symmetry.
 There are  1966 symmetry adapted basis functions of A   symmetry.
  1966 basis functions,  2938 primitive gaussians,  2140 cartesian basis functions
   195 alpha electrons      195 beta electrons
       nuclear repulsion energy      7459.2025711153 Hartrees.
 IExCor=  402 DFT=T Ex+Corr=B3LYP ExCW=0 ScaHFX=  0.200000
 ScaDFX=  0.800000  0.720000  1.000000  0.810000 ScalE2=  1.000000  1.000000
 IRadAn=      5 IRanWt=     -1 IRanGd=            0 ICorTp=0 IEmpDi=131
 NAtoms=   80 NActive=   80 NUniq=   80 SFac= 1.00D+00 NAtFMM=   60 NAOKFM=T Big=T
 Integral buffers will be    131072 words long.
 Raffenetti 2 integral format.
 Two-electron integral symmetry is turned on.
 R6Disp:  Grimme-D3 Dispersion energy=       -0.0983937214 Hartrees.
 Nuclear repulsion after empirical dispersion term =     7459.1041773939 Hartrees.
 Leave Link  301 at Wed Sep 20 14:51:05 2023, MaxMem=  2013265920 cpu:               6.5 elap:               0.1
 (Enter /soft/gaussian/16-c.01/g16/l302.exe)
 NPDir=0 NMtPBC=     1 NCelOv=     1 NCel=       1 NClECP=     1 NCelD=      1
         NCelK=      1 NCelE2=     1 NClLst=     1 CellRange=     0.0.
 One-electron integrals computed using PRISM.
 One-electron integral symmetry used in STVInt
 NBasis=  1966 RedAO= T EigKep=  1.02D-06  NBF=  1966
 NBsUse=  1941 1.00D-06 EigRej=  9.79D-07 NBFU=  1941
 Precomputing XC quadrature grid using
 IXCGrd= 4 IRadAn=           5 IRanWt=          -1 IRanGd=           0 AccXCQ= 0.00D+00.
 Generated NRdTot=       0 NPtTot=           0 NUsed=           0 NTot=          32
 NSgBfM=  2058  2051  2057  2058  2058 MxSgAt=    80 MxSgA2=    80.
 Leave Link  302 at Wed Sep 20 14:51:31 2023, MaxMem=  2013265920 cpu:            1620.0 elap:              25.4
 (Enter /soft/gaussian/16-c.01/g16/l303.exe)
 DipDrv:  MaxL=1.
 Leave Link  303 at Wed Sep 20 14:51:33 2023, MaxMem=  2013265920 cpu:              86.0 elap:               1.8
 (Enter /soft/gaussian/16-c.01/g16/l401.exe)
 Initial guess from the checkpoint file:  "base_molecule.chk"
 B after Tr=     0.000000    0.000000   -0.000000
         Rot=    1.000000   -0.000294   -0.000001   -0.000028 Ang=  -0.03 deg.
 Guess basis will be translated and rotated to current coordinates.
 JPrj=2 DoOrth=T DoCkMO=T.
 Initial guess <Sx>= 0.0000 <Sy>= 0.0000 <Sz>= 0.0000 <S**2>=-0.0000 S=-0.0000
 Generating alternative initial guess.
 ExpMin= 4.38D-02 ExpMax= 5.48D+03 ExpMxC= 8.25D+02 IAcc=3 IRadAn=         5 AccDes= 0.00D+00
 Harris functional with IExCor=  402 and IRadAn=       5 diagonalized for initial guess.
 HarFok:  IExCor=  402 AccDes= 0.00D+00 IRadAn=         5 IDoV= 1 UseB2=F ITyADJ=14
 ICtDFT=  3500011 ScaDFX=  1.000000  1.000000  1.000000  1.000000
 FoFCou: FMM=F IPFlag=           0 FMFlag=      100000 FMFlg1=        2001
         NFxFlg=           0 DoJE=T BraDBF=F KetDBF=T FulRan=T
         wScrn=  0.000000 ICntrl=       500 IOpCl=  0 I1Cent=   200000004 NGrid=           0
         NMat0=    1 NMatS0=      1 NMatT0=    0 NMatD0=    1 NMtDS0=    0 NMtDT0=    0
 Petite list used in FoFCou.
 Harris En= -2594.85799555439    
 Leave Link  401 at Wed Sep 20 14:52:21 2023, MaxMem=  2013265920 cpu:            3101.0 elap:              48.7
 (Enter /soft/gaussian/16-c.01/g16/l502.exe)
 Integral symmetry usage will be decided dynamically.
 UHF open shell SCF:
 Using DIIS extrapolation, IDIIS=    10.
 NGot=  2013265920 LenX=  2003949996 LenY=  1999368256
 Requested convergence on RMS density matrix=1.00D-08 within 128 cycles.
 Requested convergence on MAX density matrix=1.00D-06.
 Requested convergence on             energy=1.00D-06.
 Level shift goal  0.100 maximum shift  0.100.
 No special actions if energy rises.
 Dynamic level shift is on during FON iterations.
 Fock matrices will be formed incrementally for  20 cycles.

 Cycle   1  Pass 1  IDiag  1:
 FoFJK:  IHMeth= 1 ICntrl=       0 DoSepK=F KAlg= 0 I1Cent=           0 FoldK=F
 IRaf= 680000000 NMat=       1 IRICut=       1 DoRegI=T DoRafI=F ISym2E= 0 IDoP0=0 IntGTp=1.
 FoFCou: FMM=T IPFlag=           0 FMFlag=      100000 FMFlg1=        2001
         NFxFlg=           0 DoJE=F BraDBF=F KetDBF=F FulRan=T
         wScrn=  0.000000 ICntrl=         0 IOpCl=  1 I1Cent=           0 NGrid=           0
         NMat0=    1 NMatS0=      1 NMatT0=    0 NMatD0=    1 NMtDS0=    0 NMtDT0=    0
 Symmetry not used in FoFCou.
 FMM levels:  10  Number of levels for PrismC:   9
 E= -2594.80351268001    
 DIIS: error= 8.00D-03 at cycle   1 NSaved=   1.
 NSaved= 1 IEnMin= 1 EnMin= -2594.80351268001     IErMin= 1 ErrMin= 8.00D-03
 ErrMax= 8.00D-03  0.00D+00 EMaxC= 1.00D+00 BMatC= 2.36D-01 BMatP= 2.36D-01
 IDIUse=1 WtCom= 1.00D+00 WtEn= 0.00D+00
 Coeff-Com:  0.100D+01
 Coeff:      0.100D+01
 Gap=     0.430 Goal=     0.100 Shift=    0.000
 T=  703. Gap= 0.124 NK=0 IS=  196 IE= 1941 IFin=  195
          NO(<0.9)=   0  NV(>0.1)=   0    195.00e < EF      0.00e >EF  Err=0.0D+00
 Gap=     0.430 Goal=     0.100 Shift=    0.000
 T=  703. Gap= 0.124 NK=0 IS=  196 IE= 1941 IFin=  195
          NO(<0.9)=   0  NV(>0.1)=   0    195.00e < EF      0.00e >EF  Err=0.0D+00
 GapD=    0.430 DampG=2.000 DampE=1.000 DampFc=2.0000 IDamp=-1.
 RMSDP=4.52D-03 MaxDP=7.51D-01              OVMax= 1.02D-01

 Cycle   2  Pass 1  IDiag  1:
 RMSU=  4.50D-03    CP:  9.85D-01
