i213

                                 *****************
                                 * O   R   C   A *
                                 *****************

                                            #,                                       
                                            ###                                      
                                            ####                                     
                                            #####                                    
                                            ######                                   
                                           ########,                                 
                                     ,,################,,,,,                         
                               ,,#################################,,                 
                          ,,##########################################,,             
                       ,#########################################, ''#####,          
                    ,#############################################,,   '####,        
                  ,##################################################,,,,####,       
                ,###########''''           ''''###############################       
              ,#####''   ,,,,##########,,,,          '''####'''          '####       
            ,##' ,,,,###########################,,,                        '##       
           ' ,,###''''                  '''############,,,                           
         ,,##''                                '''############,,,,        ,,,,,,###''
      ,#''                                            '''#######################'''  
     '                                                          ''''####''''         
             ,#######,   #######,   ,#######,      ##                                
            ,#'     '#,  ##    ##  ,#'     '#,    #''#        ######   ,####,        
            ##       ##  ##   ,#'  ##            #'  '#       #        #'  '#        
            ##       ##  #######   ##           ,######,      #####,   #    #        
            '#,     ,#'  ##    ##  '#,     ,#' ,#      #,         ##   #,  ,#        
             '#######'   ##     ##  '#######'  #'      '#     #####' # '####'        



                  #######################################################
                  #                        -***-                        #
                  #          Department of theory and spectroscopy      #
                  #    Directorship and core code : Frank Neese         #
                  #        Max Planck Institute fuer Kohlenforschung    #
                  #                Kaiser Wilhelm Platz 1               #
                  #                 D-45470 Muelheim/Ruhr               #
                  #                      Germany                        #
                  #                                                     #
                  #                  All rights reserved                #
                  #                        -***-                        #
                  #######################################################


                         Program Version 5.0.3 -  RELEASE  -


 With contributions from (in alphabetic order):
   Daniel Aravena         : Magnetic Suceptibility
   Michael Atanasov       : Ab Initio Ligand Field Theory (pilot matlab implementation)
   Alexander A. Auer      : GIAO ZORA, VPT2 properties, NMR spectrum
   Ute Becker             : Parallelization
   Giovanni Bistoni       : ED, misc. LED, open-shell LED, HFLD
   Martin Brehm           : Molecular dynamics
   Dmytro Bykov           : SCF Hessian
   Vijay G. Chilkuri      : MRCI spin determinant printing, contributions to CSF-ICE
   Dipayan Datta          : RHF DLPNO-CCSD density
   Achintya Kumar Dutta   : EOM-CC, STEOM-CC
   Dmitry Ganyushin       : Spin-Orbit,Spin-Spin,Magnetic field MRCI
   Miquel Garcia          : C-PCM and meta-GGA Hessian, CC/C-PCM, Gaussian charge scheme
   Yang Guo               : DLPNO-NEVPT2, F12-NEVPT2, CIM, IAO-localization
   Andreas Hansen         : Spin unrestricted coupled pair/coupled cluster methods
   Benjamin Helmich-Paris : MC-RPA, TRAH-SCF, COSX integrals
   Lee Huntington         : MR-EOM, pCC
   Robert Izsak           : Overlap fitted RIJCOSX, COSX-SCS-MP3, EOM
   Marcus Kettner         : VPT2
   Christian Kollmar      : KDIIS, OOCD, Brueckner-CCSD(T), CCSD density, CASPT2, CASPT2-K
   Simone Kossmann        : Meta GGA functionals, TD-DFT gradient, OOMP2, MP2 Hessian
   Martin Krupicka        : Initial AUTO-CI
   Lucas Lang             : DCDCAS
   Marvin Lechner         : AUTO-CI (C++ implementation), FIC-MRCC
   Dagmar Lenk            : GEPOL surface, SMD
   Dimitrios Liakos       : Extrapolation schemes; Compound Job, initial MDCI parallelization
   Dimitrios Manganas     : Further ROCIS development; embedding schemes
   Dimitrios Pantazis     : SARC Basis sets
   Anastasios Papadopoulos: AUTO-CI, single reference methods and gradients
   Taras Petrenko         : DFT Hessian,TD-DFT gradient, ASA, ECA, R-Raman, ABS, FL, XAS/XES, NRVS
   Peter Pinski           : DLPNO-MP2, DLPNO-MP2 Gradient
   Christoph Reimann      : Effective Core Potentials
   Marius Retegan         : Local ZFS, SOC
   Christoph Riplinger    : Optimizer, TS searches, QM/MM, DLPNO-CCSD(T), (RO)-DLPNO pert. Triples
   Tobias Risthaus        : Range-separated hybrids, TD-DFT gradient, RPA, STAB
   Michael Roemelt        : Original ROCIS implementation
   Masaaki Saitow         : Open-shell DLPNO-CCSD energy and density
   Barbara Sandhoefer     : DKH picture change effects
   Avijit Sen             : IP-ROCIS
   Kantharuban Sivalingam : CASSCF convergence, NEVPT2, FIC-MRCI
   Bernardo de Souza      : ESD, SOC TD-DFT
   Georgi Stoychev        : AutoAux, RI-MP2 NMR, DLPNO-MP2 response
   Willem Van den Heuvel  : Paramagnetic NMR
   Boris Wezisla          : Elementary symmetry handling
   Frank Wennmohs         : Technical directorship


 We gratefully acknowledge several colleagues who have allowed us to
 interface, adapt or use parts of their codes:
   Stefan Grimme, W. Hujo, H. Kruse, P. Pracht,  : VdW corrections, initial TS optimization,
                  C. Bannwarth, S. Ehlert          DFT functionals, gCP, sTDA/sTD-DF
   Ed Valeev, F. Pavosevic, A. Kumar             : LibInt (2-el integral package), F12 methods
   Garnet Chan, S. Sharma, J. Yang, R. Olivares  : DMRG
   Ulf Ekstrom                                   : XCFun DFT Library
   Mihaly Kallay                                 : mrcc  (arbitrary order and MRCC methods)
   Jiri Pittner, Ondrej Demel                    : Mk-CCSD
   Frank Weinhold                                : gennbo (NPA and NBO analysis)
   Christopher J. Cramer and Donald G. Truhlar   : smd solvation model
   Lars Goerigk                                  : TD-DFT with DH, B97 family of functionals
   V. Asgeirsson, H. Jonsson                     : NEB implementation
   FAccTs GmbH                                   : IRC, NEB, NEB-TS, DLPNO-Multilevel, CI-OPT
                                                   MM, QMMM, 2- and 3-layer-ONIOM, Crystal-QMMM,
                                                   LR-CPCM, SF, NACMEs, symmetry and pop. for TD-DFT,
                                                   nearIR, NL-DFT gradient (VV10), updates on ESD,
                                                   ML-optimized integration grids
   S Lehtola, MJT Oliveira, MAL Marques          : LibXC Library
   Liviu Ungur et al                             : ANISO software


 Your calculation uses the libint2 library for the computation of 2-el integrals
 For citations please refer to: http://libint.valeyev.net

 Your ORCA version has been built with support for libXC version: 5.1.0
 For citations please refer to: https://tddft.org/programs/libxc/

 This ORCA versions uses:
   CBLAS   interface :  Fast vector & matrix operations
   LAPACKE interface :  Fast linear algebra routines
   SCALAPACK package :  Parallel linear algebra routines
   Shared memory     :  Shared parallel matrices
   BLAS/LAPACK       :  OpenBLAS 0.3.15  USE64BITINT DYNAMIC_ARCH NO_AFFINITY Zen SINGLE_THREADED
        Core in use  :  Zen
   Copyright (c) 2011-2014, The OpenBLAS Project


Your calculation utilizes the atom-pairwise dispersion correction
with the zero-damping scheme (D30)
Cite in your paper:
S.Grimme, J.Antony, S.Ehrlich and H.Krieg, J.Chem.Phys., 132, (2010), 154104 
   

XCFun DFT library Copyright 2009-2010 Ulf Ekstrom and contributors.
See http://admol.org/xcfun for more information.
This is free software; see the source code for copying conditions.
There is ABSOLUTELY NO WARRANTY; not even for MERCHANTABILITY or FITNESS FOR A PARTICULAR PURPOSE.
For details see the documentation.
Scientific users of this library should cite U. Ekstrom, L. Visscher, R. Bast, A. J. Thorvaldsen and K. Ruud;
J.Chem.Theor.Comp. 2010, DOI: 10.1021/ct100117s
XCFun Version 0.99 

================================================================================

----- Orbital basis set information -----
Your calculation utilizes the basis: def2-SVP
   F. Weigend and R. Ahlrichs, Phys. Chem. Chem. Phys. 7, 3297 (2005).

----- AuxJ basis set information -----
Your calculation utilizes the auxiliary basis: def2/J
   F. Weigend, Phys. Chem. Chem. Phys. 8, 1057 (2006).

----- AuxC basis set information -----
Your calculation utilizes the auxiliary basis: def2-SVP/C
  H-La, Hf-Rn : A. Hellweg, C. Hattig, S. Hofener and W. Klopper, Theor. Chem. Acc. 117, 587 (2007).
        Ce-Lu : J. Chmela and M. E. Harding, Mol. Phys. (2018).

----- AuxJK basis set information -----
Your calculation utilizes the auxiliary basis: def2/JK
   H-Ba, Hf-Rn: F. Weigend, J. Comput. Chem. 29, 167 (2008).

================================================================================
                                        WARNINGS
                       Please study these warnings very carefully!
================================================================================


WARNING: Geometry Optimization
  ===> : Switching off AutoStart
         For restart on a previous wavefunction, please use MOREAD

INFO   : the flag for use of the SHARK integral package has been found!

================================================================================
                                       INPUT FILE
================================================================================
NAME = orca.inp
|  1> ! wB97X-D3   def2-SVP def2-SVP/C def2/J  def2/JK   CPCM(Water) opt freq 
|  2> %pal nprocs 32
|  3> end
|  4> %maxcore 20000
|  5> %scf
|  6> MaxIter 100
|  7> end
|  8> %geom
|  9> MaxIter 100
| 10> end
| 11> %output printlevel small
| 12> print[P_Hirshfeld] 1
| 13> print[P_Loewdin] 1
| 14> print[P_Mulliken] 1
| 15> print[P_NatPop] 1
| 16>  end 
| 17> *xyz 1 1 
| 18> O   -3.878084 -2.092453 0.586127
| 19> C   -2.770324 -1.650237 0.699051
| 20> C   -2.378174 -0.309008 0.168285
| 21> C   -3.413195 0.615627 0.005496
| 22> C   -3.163811 1.947929 -0.276261
| 23> C   -1.856913 2.3879 -0.328075
| 24> C   -0.809837 1.473753 -0.194649
| 25> C   -1.054181 0.09385 -0.03264
| 26> C   0.063633 -0.863299 -0.130575
| 27> C   -0.147678 -2.176811 -0.512755
| 28> C   0.906413 -3.088898 -0.55619
| 29> C   2.196018 -2.712465 -0.242941
| 30> C   2.429326 -1.386261 0.067947
| 31> F   3.665742 -1.005703 0.304999
| 32> C   1.397625 -0.441203 0.103817
| 33> C   1.675201 0.964827 0.211229
| 34> O   2.75869 1.481653 0.446193
| 35> C   0.541225 1.954203 -0.089373
| 36> O   0.881866 3.129217 -0.152334
| 37> H   -1.993344 -2.181318 1.274674
| 38> H   -4.431688 0.271366 0.133344
| 39> H   -3.982751 2.641431 -0.403165
| 40> H   -1.635366 3.438184 -0.462006
| 41> H   -1.124209 -2.511631 -0.830649
| 42> H   0.707255 -4.111299 -0.846814
| 43> H   3.01704 -3.415725 -0.266823
| 44> Li   2.724302 3.35023 0.235022
| 45> *
| 46> 
| 47>                          ****END OF INPUT****
================================================================================

                       *****************************
                       * Geometry Optimization Run *
                       *****************************

Geometry optimization settings:
Update method            Update   .... BFGS
Choice of coordinates    CoordSys .... Z-matrix Internals
Initial Hessian          InHess   .... Almoef's Model

Convergence Tolerances:
Energy Change            TolE     ....  5.0000e-06 Eh
Max. Gradient            TolMAXG  ....  3.0000e-04 Eh/bohr
RMS Gradient             TolRMSG  ....  1.0000e-04 Eh/bohr
Max. Displacement        TolMAXD  ....  4.0000e-03 bohr
RMS Displacement         TolRMSD  ....  2.0000e-03 bohr
Strict Convergence                ....  False
------------------------------------------------------------------------------
                        ORCA OPTIMIZATION COORDINATE SETUP
------------------------------------------------------------------------------

The optimization will be done in new redundant internal coordinates
Making redundant internal coordinates   ...  (new redundants) done
Evaluating the initial hessian          ...  (Almloef) done
Evaluating the coordinates              ...  done
Calculating the B-matrix                .... done
Calculating the G-matrix                .... done
Diagonalizing the G-matrix              .... done
Small eigenvalue found = 1.810e-02
The first mode is                       ....   77
The number of degrees of freedom        ....   75

    -----------------------------------------------------------------
                    Redundant Internal Coordinates


    -----------------------------------------------------------------
         Definition                    Initial Value    Approx d2E/dq
    -----------------------------------------------------------------
      1. B(C   1,O   0)                  1.1981         1.132512   
      2. B(C   2,C   1)                  1.4948         0.425164   
      3. B(C   3,C   2)                  1.3974         0.608047   
      4. B(C   4,C   3)                  1.3844         0.637745   
      5. B(C   5,C   4)                  1.3799         0.648313   
      6. B(C   6,C   5)                  1.3964         0.610356   
      7. B(C   7,C   6)                  1.4107         0.579039   
      8. B(C   7,C   2)                  1.3984         0.605731   
      9. B(C   8,C   7)                  1.4749         0.457444   
     10. B(C   9,C   8)                  1.3842         0.638237   
     11. B(C  10,C   9)                  1.3946         0.614337   
     12. B(C  11,C  10)                  1.3795         0.649465   
     13. B(C  12,C  11)                  1.3820         0.643451   
     14. B(F  13,C  12)                  1.3152         0.684401   
     15. B(C  14,C   8)                  1.4187         0.562327   
     16. B(C  14,C  12)                  1.3996         0.603187   
     17. B(C  15,C  14)                  1.4372         0.525357   
     18. B(O  16,C  15)                  1.2232         1.032674   
     19. B(C  17,C  15)                  1.5346         0.367257   
     20. B(C  17,C   6)                  1.4378         0.524165   
     21. B(O  18,C  17)                  1.2250         1.025890   
     22. B(H  19,C   1)                  1.1032         0.343034   
     23. B(H  20,C   3)                  1.0827         0.369919   
     24. B(H  21,C   4)                  1.0806         0.372742   
     25. B(H  22,C   5)                  1.0817         0.371222   
     26. B(H  23,C   9)                  1.0802         0.373337   
     27. B(H  24,C  10)                  1.0814         0.371656   
     28. B(H  25,C  11)                  1.0813         0.371787   
     29. B(Li 26,O  18)                  1.8956         0.423830   
     30. B(Li 26,O  16)                  1.8808         0.447605   
     31. A(O   0,C   1,C   2)          122.7026         0.449125   
     32. A(C   2,C   1,H  19)          115.6227         0.328662   
     33. A(O   0,C   1,H  19)          121.5121         0.385698   
     34. A(C   3,C   2,C   7)          119.5969         0.430743   
     35. A(C   1,C   2,C   7)          123.9093         0.404160   
     36. A(C   1,C   2,C   3)          116.1524         0.404433   
     37. A(C   2,C   3,H  20)          118.2042         0.353353   
     38. A(C   2,C   3,C   4)          121.8071         0.434750   
     39. A(C   4,C   3,H  20)          119.9665         0.356222   
     40. A(C   3,C   4,H  21)          120.3311         0.356682   
     41. A(C   3,C   4,C   5)          119.0173         0.439805   
     42. A(C   5,C   4,H  21)          120.5779         0.357680   
     43. A(C   4,C   5,C   6)          119.8579         0.436337   
     44. A(C   6,C   5,H  22)          119.5965         0.353791   
     45. A(C   4,C   5,H  22)          120.5430         0.357432   
     46. A(C   7,C   6,C  17)          118.7643         0.416098   
     47. A(C   5,C   6,C  17)          119.5285         0.420021   
     48. A(C   5,C   6,C   7)          121.4303         0.427566   
     49. A(C   2,C   7,C   8)          122.6938         0.409424   
     50. A(C   6,C   7,C   8)          119.7293         0.406172   
     51. A(C   2,C   7,C   6)          117.5340         0.426983   
     52. A(C   7,C   8,C   9)          121.2291         0.413237   
     53. A(C   9,C   8,C  14)          118.1314         0.428746   
     54. A(C   7,C   8,C  14)          120.5712         0.404077   
     55. A(C   8,C   9,C  10)          120.9191         0.435617   
     56. A(C  10,C   9,H  23)          118.1270         0.354522   
     57. A(C   8,C   9,H  23)          120.8909         0.356826   
     58. A(C   9,C  10,C  11)          121.4036         0.436988   
     59. A(C  11,C  10,H  24)          119.4191         0.357610   
     60. A(C   9,C  10,H  24)          119.1765         0.354251   
     61. A(C  10,C  11,C  12)          118.0847         0.440654   
     62. A(C  12,C  11,H  25)          120.0603         0.357067   
     63. A(C  10,C  11,H  25)          121.8256         0.357632   
     64. A(F  13,C  12,C  14)          119.5373         0.434855   
     65. A(C  11,C  12,C  14)          121.9585         0.434819   
     66. A(C  11,C  12,F  13)          118.4850         0.439950   
     67. A(C  12,C  14,C  15)          121.3422         0.419307   
     68. A(C   8,C  14,C  15)          119.0148         0.414104   
     69. A(C   8,C  14,C  12)          119.2098         0.424430   
     70. A(O  16,C  15,C  17)          114.8184         0.430185   
     71. A(C  14,C  15,C  17)          118.2530         0.384220   
     72. A(C  14,C  15,O  16)          126.7829         0.458983   
     73. A(C  15,O  16,Li 26)          112.4581         0.482148   
     74. A(C  15,C  17,O  18)          115.0227         0.429676   
     75. A(C   6,C  17,O  18)          125.3134         0.458242   
     76. A(C   6,C  17,C  15)          119.5547         0.384069   
     77. A(C  17,O  18,Li 26)          111.8140         0.476742   
     78. A(O  16,Li 26,O  18)           85.6919         0.446044   
     79. D(C   7,C   2,C   1,O   0)   -162.6950         0.012360   
     80. D(C   3,C   2,C   1,O   0)     24.0596         0.012360   
     81. D(C   3,C   2,C   1,H  19)   -151.3645         0.012360   
     82. D(C   7,C   2,C   1,H  19)     21.8809         0.012360   
     83. D(H  20,C   3,C   2,C   1)     -8.5098         0.025525   
     84. D(C   4,C   3,C   2,C   1)    169.7747         0.025525   
     85. D(C   4,C   3,C   2,C   7)     -3.7797         0.025525   
     86. D(H  20,C   3,C   2,C   7)    177.9358         0.025525   
     87. D(H  21,C   4,C   3,C   2)    179.6413         0.028245   
     88. D(H  21,C   4,C   3,H  20)     -2.1039         0.028245   
     89. D(C   5,C   4,C   3,H  20)    174.7928         0.028245   
     90. D(C   5,C   4,C   3,C   2)     -3.4620         0.028245   
     91. D(H  22,C   5,C   4,H  21)      2.1420         0.029254   
     92. D(H  22,C   5,C   4,C   3)   -174.7468         0.029254   
     93. D(C   6,C   5,C   4,H  21)   -178.4433         0.029254   
     94. D(C   6,C   5,C   4,C   3)      4.6679         0.029254   
     95. D(C  17,C   6,C   5,H  22)      6.8072         0.025731   
     96. D(C  17,C   6,C   5,C   4)   -172.6130         0.025731   
     97. D(C   7,C   6,C   5,H  22)   -179.3114         0.025731   
     98. D(C   7,C   6,C   5,C   4)      1.2684         0.025731   
     99. D(C   8,C   7,C   6,C  17)    -16.7060         0.023032   
    100. D(C   2,C   7,C   6,C  17)    165.6125         0.023032   
    101. D(C   2,C   7,C   6,C   5)     -8.3144         0.023032   
    102. D(C   8,C   7,C   2,C   3)   -168.1883         0.025320   
    103. D(C   8,C   7,C   2,C   1)     18.7856         0.025320   
    104. D(C   8,C   7,C   6,C   5)    169.3671         0.023032   
    105. D(C   6,C   7,C   2,C   3)      9.4193         0.025320   
    106. D(C   6,C   7,C   2,C   1)   -163.6068         0.025320   
    107. D(C  14,C   8,C   7,C   2)   -159.2304         0.014257   
    108. D(C   9,C   8,C   7,C   6)   -153.7261         0.014257   
    109. D(C   9,C   8,C   7,C   2)     23.8309         0.014257   
    110. D(C  14,C   8,C   7,C   6)     23.2126         0.014257   
    111. D(H  23,C   9,C   8,C  14)   -171.7108         0.028291   
    112. D(C  10,C   9,C   8,C  14)      5.3479         0.028291   
    113. D(C  10,C   9,C   8,C   7)   -177.6409         0.028291   
    114. D(H  23,C   9,C   8,C   7)      5.3004         0.028291   
    115. D(H  24,C  10,C   9,H  23)     -3.6286         0.026087   
    116. D(H  24,C  10,C   9,C   8)    179.2334         0.026087   
    117. D(C  11,C  10,C   9,H  23)    176.0515         0.026087   
    118. D(C  11,C  10,C   9,C   8)     -1.0865         0.026087   
    119. D(H  25,C  11,C  10,H  24)     -0.8101         0.029366   
    120. D(H  25,C  11,C  10,C   9)    179.5106         0.029366   
    121. D(C  12,C  11,C  10,H  24)    177.2174         0.029366   
    122. D(C  12,C  11,C  10,C   9)     -2.4619         0.029366   
    123. D(C  14,C  12,C  11,H  25)    179.6771         0.028787   
    124. D(C  14,C  12,C  11,C  10)      1.6134         0.028787   
    125. D(F  13,C  12,C  11,H  25)      1.2806         0.028787   
    126. D(F  13,C  12,C  11,C  10)   -176.7831         0.028787   
    127. D(C  15,C  14,C  12,F  13)      8.6880         0.025096   
    128. D(C   8,C  14,C  12,F  13)   -178.9401         0.025096   
    129. D(C   8,C  14,C  12,C  11)      2.6798         0.025096   
    130. D(C  15,C  14,C   8,C   9)    166.4689         0.021667   
    131. D(C  15,C  14,C   8,C   7)    -10.5628         0.021667   
    132. D(C  15,C  14,C  12,C  11)   -169.6920         0.025096   
    133. D(C  12,C  14,C   8,C   9)     -6.0821         0.021667   
    134. D(C  12,C  14,C   8,C   7)    176.8862         0.021667   
    135. D(C  17,C  15,C  14,C  12)    165.6270         0.018831   
    136. D(C  17,C  15,C  14,C   8)     -6.7593         0.018831   
    137. D(O  16,C  15,C  14,C  12)     -9.7394         0.018831   
    138. D(O  16,C  15,C  14,C   8)    177.8742         0.018831   
    139. D(Li 26,O  16,C  15,C  17)     -4.3780         0.088236   
    140. D(Li 26,O  16,C  15,C  14)    171.1254         0.088236   
    141. D(C  15,C  17,C   6,C   5)    173.3176         0.018744   
    142. D(O  18,C  17,C  15,O  16)      5.0620         0.009387   
    143. D(O  18,C  17,C  15,C  14)   -170.8503         0.009387   
    144. D(C   6,C  17,C  15,O  16)   -171.3377         0.009387   
    145. D(C   6,C  17,C  15,C  14)     12.7500         0.009387   
    146. D(O  18,C  17,C   6,C   7)   -176.7285         0.018744   
    147. D(O  18,C  17,C   6,C   5)     -2.6837         0.018744   
    148. D(C  15,C  17,C   6,C   7)     -0.7272         0.018744   
    149. D(Li 26,O  18,C  17,C  15)     -2.8504         0.086900   
    150. D(Li 26,O  18,C  17,C   6)    173.3111         0.086900   
    151. D(O  16,Li 26,O  18,C  17)      0.5411         0.002817   
    152. D(O  18,Li 26,O  16,C  15)      2.4257         0.002972   
    -----------------------------------------------------------------

Number of atoms                         .... 27
Number of degrees of freedom            .... 152

         *************************************************************
         *                GEOMETRY OPTIMIZATION CYCLE   1            *
         *************************************************************
---------------------------------
CARTESIAN COORDINATES (ANGSTROEM)
---------------------------------
  O     -3.878084   -2.092453    0.586127
  C     -2.770324   -1.650237    0.699051
  C     -2.378174   -0.309008    0.168285
  C     -3.413195    0.615627    0.005496
  C     -3.163811    1.947929   -0.276261
  C     -1.856913    2.387900   -0.328075
  C     -0.809837    1.473753   -0.194649
  C     -1.054181    0.093850   -0.032640
  C      0.063633   -0.863299   -0.130575
  C     -0.147678   -2.176811   -0.512755
  C      0.906413   -3.088898   -0.556190
  C      2.196018   -2.712465   -0.242941
  C      2.429326   -1.386261    0.067947
  F      3.665742   -1.005703    0.304999
  C      1.397625   -0.441203    0.103817
  C      1.675201    0.964827    0.211229
  O      2.758690    1.481653    0.446193
  C      0.541225    1.954203   -0.089373
  O      0.881866    3.129217   -0.152334
  H     -1.993344   -2.181318    1.274674
  H     -4.431688    0.271366    0.133344
  H     -3.982751    2.641431   -0.403165
  H     -1.635366    3.438184   -0.462006
  H     -1.124209   -2.511631   -0.830649
  H      0.707255   -4.111299   -0.846814
  H      3.017040   -3.415725   -0.266823
  Li     2.724302    3.350230    0.235022

----------------------------
CARTESIAN COORDINATES (A.U.)
----------------------------
  NO LB      ZA    FRAG     MASS         X           Y           Z
   0 O     8.0000    0    15.999   -7.328517   -3.954163    1.107620
   1 C     6.0000    0    12.011   -5.235154   -3.118496    1.321015
   2 C     6.0000    0    12.011   -4.494098   -0.583940    0.318013
   3 C     6.0000    0    12.011   -6.450004    1.163366    0.010386
   4 C     6.0000    0    12.011   -5.978736    3.681052   -0.522058
   5 C     6.0000    0    12.011   -3.509057    4.512477   -0.619972
   6 C     6.0000    0    12.011   -1.530370    2.784990   -0.367833
   7 C     6.0000    0    12.011   -1.992113    0.177351   -0.061681
   8 C     6.0000    0    12.011    0.120249   -1.631399   -0.246751
   9 C     6.0000    0    12.011   -0.279071   -4.113577   -0.968967
  10 C     6.0000    0    12.011    1.712872   -5.837171   -1.051047
  11 C     6.0000    0    12.011    4.149873   -5.125816   -0.459092
  12 C     6.0000    0    12.011    4.590761   -2.619654    0.128401
  13 F     9.0000    0    18.998    6.927248   -1.900503    0.576365
  14 C     6.0000    0    12.011    2.641128   -0.833753    0.196186
  15 C     6.0000    0    12.011    3.165671    1.823259    0.399165
  16 O     8.0000    0    15.999    5.213169    2.799918    0.843183
  17 C     6.0000    0    12.011    1.022767    3.692908   -0.168890
  18 O     8.0000    0    15.999    1.666485    5.913363   -0.287870
  19 H     1.0000    0     1.008   -3.766874   -4.122094    2.408785
  20 H     1.0000    0     1.008   -8.374677    0.512807    0.251984
  21 H     1.0000    0     1.008   -7.526309    4.991581   -0.761871
  22 H     1.0000    0     1.008   -3.090394    6.497226   -0.873065
  23 H     1.0000    0     1.008   -2.124447   -4.746295   -1.569699
  24 H     1.0000    0     1.008    1.336518   -7.769229   -1.600247
  25 H     1.0000    0     1.008    5.701379   -6.454785   -0.504222
  26 Li    3.0000    0     6.941    5.148185    6.331017    0.444127

--------------------------------
INTERNAL COORDINATES (ANGSTROEM)
--------------------------------
 O      0   0   0     0.000000000000     0.00000000     0.00000000
 C      1   0   0     1.198098091991     0.00000000     0.00000000
 C      2   1   0     1.494787409533   122.70256048     0.00000000
 C      3   2   1     1.397397084650   116.15244546    24.05957022
 C      4   3   2     1.384416124476   121.80713278   169.77465038
 C      5   4   3     1.379942590777   119.01732476   356.53802376
 C      6   5   4     1.396365061458   119.85789508     4.66787456
 C      3   2   1     1.398435871908   123.90932496   197.30499357
 C      8   3   2     1.474867319803   122.69375206    18.78562614
 C      9   8   3     1.384206511061   121.22907853    23.83089820
 C     10   9   8     1.394595687314   120.91908955   182.35913622
 C     11  10   9     1.379459240251   121.40360725   358.91349805
 C     12  11  10     1.381991686308   118.08466439   357.53806868
 F     13  12  11     1.315196778860   118.48495133   183.21694586
 C     13  12  11     1.399581449457   121.95851443     1.61344345
 C     15  13  12     1.437186882218   121.34219236   190.30796020
 O     16  15  13     1.223219362458   126.78294654   350.26057181
 C      7   6   5     1.437805190740   119.52852980   187.38697401
 O     18   7   6     1.225013583026   125.31338638   357.31633927
 H      2   1   3     1.103216564003   121.51209712   175.15974966
 H      4   3   2     1.082676654534   118.20420158   351.49021045
 H      5   4   3     1.080607409201   120.33110594   179.64132178
 H      6   5   4     1.081719495353   120.54301316   185.25322044
 H     10   9   8     1.080173051690   120.89091811     5.30039738
 H     11  10   9     1.081401878647   119.17654992   179.23338487
 H     12  11  10     1.081305739376   121.82560567   179.51056185
 Li    17  16  15     1.880785934314   112.45811052   171.12539641

---------------------------
INTERNAL COORDINATES (A.U.)
---------------------------
 O      0   0   0     0.000000000000     0.00000000     0.00000000
 C      1   0   0     2.264077275436     0.00000000     0.00000000
 C      2   1   0     2.824738832450   122.70256048     0.00000000
 C      3   2   1     2.640697790328   116.15244546    24.05957022
 C      4   3   2     2.616167330644   121.80713278   169.77465038
 C      5   4   3     2.607713577103   119.01732476   356.53802376
 C      6   5   4     2.638747549132   119.85789508     4.66787456
 C      3   2   1     2.642660813757   123.90932496   197.30499357
 C      8   3   2     2.787095318298   122.69375206    18.78562614
 C      9   8   3     2.615771218697   121.22907853    23.83089820
 C     10   9   8     2.635403916571   120.91908955   182.35913622
 C     11  10   9     2.606800176982   121.40360725   358.91349805
 C     12  11  10     2.611585806478   118.08466439   357.53806868
 F     13  12  11     2.485361724261   118.48495133   183.21694586
 C     13  12  11     2.644825641591   121.95851443     1.61344345
 C     15  13  12     2.715889610656   121.34219236   190.30796020
 O     16  15  13     2.311549596756   126.78294654   350.26057181
 C      7   6   5     2.717058044430   119.52852980   187.38697401
 O     18   7   6     2.314940182253   125.31338638   357.31633927
 H      2   1   3     2.084777172371   121.51209712   175.15974966
 H      4   3   2     2.045962368660   118.20420158   351.49021045
 H      5   4   3     2.042052061676   120.33110594   179.64132178
 H      6   5   4     2.044153599940   120.54301316   185.25322044
 H     10   9   8     2.041231244936   120.89091811     5.30039738
 H     11  10   9     2.043553391351   119.17654992   179.23338487
 H     12  11  10     2.043371714458   121.82560567   179.51056185
 Li    17  16  15     3.554170332385   112.45811052   171.12539641

---------------------
BASIS SET INFORMATION
---------------------
There are 5 groups of distinct atoms

 Group   1 Type O   : 7s4p1d contracted to 3s2p1d pattern {511/31/1}
 Group   2 Type C   : 7s4p1d contracted to 3s2p1d pattern {511/31/1}
 Group   3 Type F   : 7s4p1d contracted to 3s2p1d pattern {511/31/1}
 Group   4 Type H   : 4s1p contracted to 2s1p pattern {31/1}
 Group   5 Type Li  : 7s3p contracted to 3s2p pattern {511/21}

Atom   0O    basis set group =>   1
Atom   1C    basis set group =>   2
Atom   2C    basis set group =>   2
Atom   3C    basis set group =>   2
Atom   4C    basis set group =>   2
Atom   5C    basis set group =>   2
Atom   6C    basis set group =>   2
Atom   7C    basis set group =>   2
Atom   8C    basis set group =>   2
Atom   9C    basis set group =>   2
Atom  10C    basis set group =>   2
Atom  11C    basis set group =>   2
Atom  12C    basis set group =>   2
Atom  13F    basis set group =>   3
Atom  14C    basis set group =>   2
Atom  15C    basis set group =>   2
Atom  16O    basis set group =>   1
Atom  17C    basis set group =>   2
Atom  18O    basis set group =>   1
Atom  19H    basis set group =>   4
Atom  20H    basis set group =>   4
Atom  21H    basis set group =>   4
Atom  22H    basis set group =>   4
Atom  23H    basis set group =>   4
Atom  24H    basis set group =>   4
Atom  25H    basis set group =>   4
Atom  26Li   basis set group =>   5
---------------------------------
AUXILIARY/J BASIS SET INFORMATION
---------------------------------
There are 5 groups of distinct atoms

 Group   1 Type O   : 12s5p4d2f1g contracted to 6s4p3d1f1g pattern {711111/2111/211/2/1}
 Group   2 Type C   : 12s5p4d2f1g contracted to 6s4p3d1f1g pattern {711111/2111/211/2/1}
 Group   3 Type F   : 12s5p4d2f1g contracted to 6s4p3d1f1g pattern {711111/2111/211/2/1}
 Group   4 Type H   : 5s2p1d contracted to 3s1p1d pattern {311/2/1}
 Group   5 Type Li  : 12s5p4d2f1g contracted to 6s4p3d1f1g pattern {711111/2111/211/2/1}

Atom   0O    basis set group =>   1
Atom   1C    basis set group =>   2
Atom   2C    basis set group =>   2
Atom   3C    basis set group =>   2
Atom   4C    basis set group =>   2
Atom   5C    basis set group =>   2
Atom   6C    basis set group =>   2
Atom   7C    basis set group =>   2
Atom   8C    basis set group =>   2
Atom   9C    basis set group =>   2
Atom  10C    basis set group =>   2
Atom  11C    basis set group =>   2
Atom  12C    basis set group =>   2
Atom  13F    basis set group =>   3
Atom  14C    basis set group =>   2
Atom  15C    basis set group =>   2
Atom  16O    basis set group =>   1
Atom  17C    basis set group =>   2
Atom  18O    basis set group =>   1
Atom  19H    basis set group =>   4
Atom  20H    basis set group =>   4
Atom  21H    basis set group =>   4
Atom  22H    basis set group =>   4
Atom  23H    basis set group =>   4
Atom  24H    basis set group =>   4
Atom  25H    basis set group =>   4
Atom  26Li   basis set group =>   5
---------------------------------
AUXILIARY/C BASIS SET INFORMATION
---------------------------------
There are 5 groups of distinct atoms

 Group   1 Type O   : 8s6p5d3f contracted to 6s5p4d1f pattern {311111/21111/2111/3}
 Group   2 Type C   : 8s6p5d3f contracted to 6s5p4d1f pattern {311111/21111/2111/3}
 Group   3 Type F   : 8s6p5d3f contracted to 6s5p4d1f pattern {311111/21111/2111/3}
 Group   4 Type H   : 4s3p2d contracted to 3s2p1d pattern {211/21/2}
 Group   5 Type Li  : 9s5p3d contracted to 5s5p1d pattern {51111/11111/3}

Atom   0O    basis set group =>   1
Atom   1C    basis set group =>   2
Atom   2C    basis set group =>   2
Atom   3C    basis set group =>   2
Atom   4C    basis set group =>   2
Atom   5C    basis set group =>   2
Atom   6C    basis set group =>   2
Atom   7C    basis set group =>   2
Atom   8C    basis set group =>   2
Atom   9C    basis set group =>   2
Atom  10C    basis set group =>   2
Atom  11C    basis set group =>   2
Atom  12C    basis set group =>   2
Atom  13F    basis set group =>   3
Atom  14C    basis set group =>   2
Atom  15C    basis set group =>   2
Atom  16O    basis set group =>   1
Atom  17C    basis set group =>   2
Atom  18O    basis set group =>   1
Atom  19H    basis set group =>   4
Atom  20H    basis set group =>   4
Atom  21H    basis set group =>   4
Atom  22H    basis set group =>   4
Atom  23H    basis set group =>   4
Atom  24H    basis set group =>   4
Atom  25H    basis set group =>   4
Atom  26Li   basis set group =>   5
----------------------------------
AUXILIARY/JK BASIS SET INFORMATION
----------------------------------
There are 5 groups of distinct atoms

 Group   1 Type O   : 14s10p6d2f1g contracted to 10s8p4d2f1g pattern {5111111111/31111111/3111/11/1}
 Group   2 Type C   : 14s10p6d2f1g contracted to 10s8p5d1f1g pattern {5111111111/31111111/21111/2/1}
 Group   3 Type F   : 14s10p6d2f1g contracted to 10s8p4d2f1g pattern {5111111111/31111111/3111/11/1}
 Group   4 Type H   : 4s2p2d contracted to 2s2p2d pattern {31/11/11}
 Group   5 Type Li  : 10s7p4d2f contracted to 7s5p3d2f pattern {4111111/31111/211/11}

Atom   0O    basis set group =>   1
Atom   1C    basis set group =>   2
Atom   2C    basis set group =>   2
Atom   3C    basis set group =>   2
Atom   4C    basis set group =>   2
Atom   5C    basis set group =>   2
Atom   6C    basis set group =>   2
Atom   7C    basis set group =>   2
Atom   8C    basis set group =>   2
Atom   9C    basis set group =>   2
Atom  10C    basis set group =>   2
Atom  11C    basis set group =>   2
Atom  12C    basis set group =>   2
Atom  13F    basis set group =>   3
Atom  14C    basis set group =>   2
Atom  15C    basis set group =>   2
Atom  16O    basis set group =>   1
Atom  17C    basis set group =>   2
Atom  18O    basis set group =>   1
Atom  19H    basis set group =>   4
Atom  20H    basis set group =>   4
Atom  21H    basis set group =>   4
Atom  22H    basis set group =>   4
Atom  23H    basis set group =>   4
Atom  24H    basis set group =>   4
Atom  25H    basis set group =>   4
Atom  26Li   basis set group =>   5


           ************************************************************
           *        Program running with 32 parallel MPI-processes    *
           *              working on a common directory               *
           ************************************************************
------------------------------------------------------------------------------
                           ORCA GTO INTEGRAL CALCULATION
                           -- RI-GTO INTEGRALS CHOSEN --
------------------------------------------------------------------------------
------------------------------------------------------------------------------
                   ___                                                        
                  /   \      - P O W E R E D   B Y -                         
                 /     \                                                     
                 |  |  |   _    _      __       _____    __    __             
                 |  |  |  | |  | |    /  \     |  _  \  |  |  /  |          
                  \  \/   | |  | |   /    \    | | | |  |  | /  /          
                 / \  \   | |__| |  /  /\  \   | |_| |  |  |/  /          
                |  |  |   |  __  | /  /__\  \  |    /   |      \           
                |  |  |   | |  | | |   __   |  |    \   |  |\   \          
                \     /   | |  | | |  |  |  |  | |\  \  |  | \   \       
                 \___/    |_|  |_| |__|  |__|  |_| \__\ |__|  \__/        
                                                                              
                      - O R C A' S   B I G   F R I E N D -                    
                                      &                                       
                       - I N T E G R A L  F E E D E R -                       
                                                                              
 v1 FN, 2020, v2 2021                                                         
------------------------------------------------------------------------------


Reading SHARK input file orca.SHARKINP.tmp ... ok
----------------------
SHARK INTEGRAL PACKAGE
----------------------

Number of atoms                             ...     27
Number of basis functions                   ...    310
Number of shells                            ...    140
Maximum angular momentum                    ...      2
Integral batch strategy                     ... SHARK/LIBINT Hybrid
RI-J (if used) integral strategy            ... SPLIT-RIJ (Revised 2003 algorithm where possible)
Printlevel                                  ...      1
Contraction scheme used                     ... SEGMENTED contraction
Coulomb Range Separation                    ... NOT USED
Exchange Range Separation                   ... Long Range
   Mu parameter                             ...  0.250000
   Scaling (regular/separated)              ...  0.195728  0.804272
Finite Nucleus Model                        ... NOT USED
Auxiliary Coulomb fitting basis             ... AVAILABLE
   # of basis functions in Aux-J            ...   1057
   # of shells in Aux-J                     ...    335
   Maximum angular momentum in Aux-J        ...      4
Auxiliary J/K fitting basis                 ... AVAILABLE
   # of basis functions in Aux-JK           ...   1610
   # of shells in Aux-JK                    ...    534
   Maximum angular momentum in Aux-JK       ...      4
Auxiliary Correlation fitting basis         ... AVAILABLE
   # of basis functions in Aux-C            ...   1035
   # of shells in Aux-C                     ...    357
   Maximum angular momentum in Aux-C        ...      3
Auxiliary 'external' fitting basis          ... NOT available
Integral threshold                          ...     2.500000e-11
Primitive cut-off                           ...     2.500000e-12
Primitive pair pre-selection threshold      ...     2.500000e-12

Calculating pre-screening integrals         ... done (  0.1 sec) Dimension = 140
Organizing shell pair data                  ... done (  0.4 sec)
Shell pair information
Total number of shell pairs                 ...      9870
Shell pairs after pre-screening             ...      8105
Total number of primitive shell pairs       ...     37680
Primitive shell pairs kept                  ...     20139
          la=0 lb=0:   2251 shell pairs
          la=1 lb=0:   2940 shell pairs
          la=1 lb=1:    993 shell pairs
          la=2 lb=0:   1058 shell pairs
          la=2 lb=1:    732 shell pairs
          la=2 lb=2:    131 shell pairs

Calculating one electron integrals          ... done (  0.1 sec)
Calculating RI/J V-Matrix + Cholesky decomp.... done (  0.4 sec)
Calculating RI/JK V-Matrix + Cholesky decomp... done (  2.5 sec)
Calculating RI/C V-Matrix + Cholesky decomp.... done (  0.4 sec)
Calculating Nuclear repulsion               ... done (  0.0 sec) ENN=   1381.263570226526 Eh

SHARK setup successfully completed in   5.0 seconds

Maximum memory used throughout the entire GTOINT-calculation: 17.2 MB


           ************************************************************
           *        Program running with 32 parallel MPI-processes    *
           *              working on a common directory               *
           ************************************************************
-------------------------------------------------------------------------------
                                 ORCA SCF
-------------------------------------------------------------------------------

------------
SCF SETTINGS
------------
Hamiltonian:
 Density Functional     Method          .... DFT(GTOs)
 Exchange Functional    Exchange        .... WB97X-D3
 Correlation Functional Correlation     .... WB97X-D3
 Gradients option       PostSCFGGA      .... off
 Hybrid DFT is turned on
   Fraction HF Exchange ScalHFX         ....  0.195728
   Scaling of DF-GGA-X  ScalDFX         ....  0.000000
   Scaling of DF-GGA-C  ScalDFC         ....  1.000000
   Scaling of DF-LDA-C  ScalLDAC        ....  1.000000
   Perturbative correction              ....  0.000000
   Density functional embedding theory  .... OFF
 Long-range corrected/Screened/Range-Separated Hybrid DFT is turned on
   Amount of maximum screened exact exchange              ....  0.804272
   Range separation parameter mu (erf(mu*r12)/r12)        ....  0.250000
 RI-approximation to the Coulomb term is turned on
   Number of AuxJ basis functions       .... 1057
   RIJ-COSX (HFX calculated with COS-X)).... on


General Settings:
 Integral files         IntName         .... orca
 Hartree-Fock type      HFTyp           .... RHF
 Total Charge           Charge          ....    1
 Multiplicity           Mult            ....    1
 Number of Electrons    NEL             ....  132
 Basis Dimension        Dim             ....  310
 Nuclear Repulsion      ENuc            ....   1381.2635702265 Eh

Convergence Acceleration:
 DIIS                   CNVDIIS         .... on
   Start iteration      DIISMaxIt       ....    12
   Startup error        DIISStart       ....  0.200000
   # of expansion vecs  DIISMaxEq       ....     5
   Bias factor          DIISBfac        ....   1.050
   Max. coefficient     DIISMaxC        ....  10.000
 Trust-Rad. Augm. Hess. CNVTRAH         .... auto
   Auto Start mean grad. ratio tolernc. ....  1.125000
   Auto Start start iteration           ....    20
   Auto Start num. interpolation iter.  ....    10
   Max. Number of Micro iterations      ....    16
   Max. Number of Macro iterations      .... Maxiter - #DIIS iter
   Number of Davidson start vectors     ....     2
   Converg. threshold I  (grad. norm)   ....   1.000e-05
   Converg. threshold II (energy diff.) ....   1.000e-08
   Grad. Scal. Fac. for Micro threshold ....   0.100
   Minimum threshold for Micro iter.    ....   0.010
   NR start threshold (gradient norm)   ....   0.001
   Initial trust radius                 ....   0.400
   Minimum AH scaling param. (alpha)    ....   1.000
   Maximum AH scaling param. (alpha)    .... 1000.000
   Orbital update algorithm             .... Taylor
   White noise on init. David. guess    .... on
   Maximum white noise                  ....   0.010
   Quad. conv. algorithm                .... NR
 SOSCF                  CNVSOSCF        .... on
   Start iteration      SOSCFMaxIt      ....   150
   Startup grad/error   SOSCFStart      ....  0.003300
 Level Shifting         CNVShift        .... on
   Level shift para.    LevelShift      ....    0.2500
   Turn off err/grad.   ShiftErr        ....    0.0010
 Zerner damping         CNVZerner       .... off
 Static damping         CNVDamp         .... on
   Fraction old density DampFac         ....    0.7000
   Max. Damping (<1)    DampMax         ....    0.9800
   Min. Damping (>=0)   DampMin         ....    0.0000
   Turn off err/grad.   DampErr         ....    0.1000
 Fernandez-Rico         CNVRico         .... off

SCF Procedure:
 Maximum # iterations   MaxIter         ....   100
 SCF integral mode      SCFMode         .... Direct
   Integral package                     .... SHARK and LIBINT hybrid scheme
 Reset frequency        DirectResetFreq ....    20
 Integral Threshold     Thresh          ....  2.500e-11 Eh
 Primitive CutOff       TCut            ....  2.500e-12 Eh

Convergence Tolerance:
 Convergence Check Mode ConvCheckMode   .... Total+1el-Energy
 Convergence forced     ConvForced      .... 0
 Energy Change          TolE            ....  1.000e-08 Eh
 1-El. energy change                    ....  1.000e-05 Eh
 Orbital Gradient       TolG            ....  1.000e-05
 Orbital Rotation angle TolX            ....  1.000e-05
 DIIS Error             TolErr          ....  5.000e-07


Diagonalization of the overlap matrix:
Smallest eigenvalue                        ... 2.010e-04
Time for diagonalization                   ...    0.022 sec
Threshold for overlap eigenvalues          ... 1.000e-08
Number of eigenvalues below threshold      ... 0
Time for construction of square roots      ...    0.156 sec
Total time needed                          ...    0.250 sec

Time for model grid setup =    2.078 sec

------------------------------
INITIAL GUESS: MODEL POTENTIAL
------------------------------
Loading Hartree-Fock densities                     ... done
Calculating cut-offs                               ... done
Initializing the effective Hamiltonian             ... done
Setting up the integral package (SHARK)            ... done
Starting the Coulomb interaction                   ... done (   0.1 sec)
Reading the grid                                   ... done
Mapping shells                                     ... done
Starting the XC term evaluation                    ... done (   0.0 sec)
  promolecular density results
     # of electrons  =    132.994524522
     EX              =   -115.085323690
     EC              =     -4.484751893
     EX+EC           =   -119.570075583
Transforming the Hamiltonian                       ... done (   0.3 sec)
Diagonalizing the Hamiltonian                      ... done (   0.3 sec)
Back transforming the eigenvectors                 ... done (   0.0 sec)
Now organizing SCF variables                       ... done
                      ------------------
                      INITIAL GUESS DONE (   3.1 sec)
                      ------------------
-------------------
DFT GRID GENERATION
-------------------

General Integration Accuracy     IntAcc      ... 4.388
Radial Grid Type                 RadialGrid  ... OptM3 with GC (2021)
Angular Grid (max. ang.)         AngularGrid ... 4 (Lebedev-302)
Angular grid pruning method      GridPruning ... 4 (adaptive)
Weight generation scheme         WeightScheme... Becke
Basis function cutoff            BFCut       ... 1.0000e-11
Integration weight cutoff        WCut        ... 1.0000e-14
Angular grids for H and He will be reduced by one unit
Partially contracted basis set               ... off
Rotationally invariant grid construction     ... off

Total number of grid points                  ...   141699
Total number of batches                      ...     2230
Average number of points per batch           ...       63
Average number of grid points per atom       ...     5248
Time for grid setup =    3.693 sec

--------------------
COSX GRID GENERATION
--------------------

GRIDX 1
-------
General Integration Accuracy     IntAcc      ... 3.816
Radial Grid Type                 RadialGrid  ... OptM3 with GC (2021)
Angular Grid (max. ang.)         AngularGrid ... 1 (Lebedev-50)
Angular grid pruning method      GridPruning ... 4 (adaptive)
Weight generation scheme         WeightScheme... Becke
Basis function cutoff            BFCut       ... 1.0000e-11
Integration weight cutoff        WCut        ... 1.0000e-14
Angular grids for H and He will be reduced by one unit
Partially contracted basis set               ... on
Rotationally invariant grid construction     ... off

Total number of grid points                  ...    17947
Total number of batches                      ...      291
Average number of points per batch           ...       61
Average number of grid points per atom       ...      665
UseSFitting                                  ... on

GRIDX 2
-------
General Integration Accuracy     IntAcc      ... 4.020
Radial Grid Type                 RadialGrid  ... OptM3 with GC (2021)
Angular Grid (max. ang.)         AngularGrid ... 2 (Lebedev-110)
Angular grid pruning method      GridPruning ... 4 (adaptive)
Weight generation scheme         WeightScheme... Becke
Basis function cutoff            BFCut       ... 1.0000e-11
Integration weight cutoff        WCut        ... 1.0000e-14
Angular grids for H and He will be reduced by one unit
Partially contracted basis set               ... on
Rotationally invariant grid construction     ... off

Total number of grid points                  ...    40439
Total number of batches                      ...      644
Average number of points per batch           ...       62
Average number of grid points per atom       ...     1498
UseSFitting                                  ... on

GRIDX 3
-------
General Integration Accuracy     IntAcc      ... 4.338
Radial Grid Type                 RadialGrid  ... OptM3 with GC (2021)
Angular Grid (max. ang.)         AngularGrid ... 3 (Lebedev-194)
Angular grid pruning method      GridPruning ... 4 (adaptive)
Weight generation scheme         WeightScheme... Becke
Basis function cutoff            BFCut       ... 1.0000e-11
Integration weight cutoff        WCut        ... 1.0000e-14
Angular grids for H and He will be reduced by one unit
Partially contracted basis set               ... on
Rotationally invariant grid construction     ... off

Total number of grid points                  ...    89017
Total number of batches                      ...     1403
Average number of points per batch           ...       63
Average number of grid points per atom       ...     3297
UseSFitting                                  ... on

Time for X-Grid setup             =    4.630 sec


--------------------
CPCM SOLVATION MODEL
--------------------
CPCM parameters:
  Epsilon                                         ...      80.4000
  Refrac                                          ...       1.3300
  Rsolv                                           ...       1.3000
  Surface type                                    ... GAUSSIAN VDW
  Epsilon function type                           ...         CPCM
Radii:
 Radius for O  used is    3.4469 Bohr (=   1.8240 Ang.)
 Radius for C  used is    3.8550 Bohr (=   2.0400 Ang.)
 Radius for F  used is    3.3335 Bohr (=   1.7640 Ang.)
 Radius for H  used is    2.4944 Bohr (=   1.3200 Ang.)
 Radius for Li used is    4.1272 Bohr (=   2.1840 Ang.)
Calculating surface                               ...        done! (  0.0s)
GEPOL surface points                              ...         1419
GEPOL Volume                                      ...    2001.9274
GEPOL Surface-area                                ...     987.7831
Calculating surface distance matrix               ...        done! (  0.0s)
Performing Cholesky decomposition & store         ...        done! (  3.9s)
Overall time for CPCM initialization              ...                 3.9s
--------------
SCF ITERATIONS
--------------
ITER       Energy         Delta-E        Max-DP      RMS-DP      [F,P]     Damp
               ***  Starting incremental Fock matrix formation  ***
  0   -907.5251069123   0.000000000000 0.07441731  0.00188136  0.2318431 0.7000
  1   -907.6652383597  -0.140131447442 0.04699343  0.00135713  0.1094765 0.7000
                               ***Turning on DIIS***
  2   -907.7276423241  -0.062403964390 0.06833130  0.00269291  0.0405762 0.0000
  3   -907.8375146326  -0.109872308493 0.03163592  0.00075143  0.0545350 0.0000
  4   -907.8527960346  -0.015281402002 0.00705966  0.00020318  0.0103059 0.0000
  5   -907.8536407157  -0.000844681046 0.00260459  0.00009327  0.0038441 0.0000
                      *** Initiating the SOSCF procedure ***
                           *** Shutting down DIIS ***
                      *** Re-Reading the Fockian *** 
                      *** Removing any level shift *** 
ITER      Energy       Delta-E        Grad      Rot      Max-DP    RMS-DP
  6   -907.85381829  -0.0001775756  0.001659  0.001659  0.001876  0.000060
               *** Restarting incremental Fock matrix formation ***
  7   -907.85393005  -0.0001117554  0.000981  0.003330  0.001303  0.000046
  8   -907.85396935  -0.0000393011  0.000482  0.004066  0.001837  0.000060
  9   -907.85397983  -0.0000104834  0.000280  0.000536  0.000770  0.000015
 10   -907.85398376  -0.0000039274  0.000090  0.000247  0.000315  0.000008
 11   -907.85398413  -0.0000003670  0.000029  0.000096  0.000178  0.000003
 12   -907.85398427  -0.0000001448  0.000018  0.000079  0.000043  0.000001
 13   -907.85398427  -0.0000000035  0.000008  0.000037  0.000026  0.000001
 14   -907.85398429  -0.0000000112  0.000004  0.000012  0.000012  0.000000
                  ***Gradient check signals convergence***
              ***Rediagonalizing the Fockian in SOSCF/NRSCF***

               *****************************************************
               *                     SUCCESS                       *
               *           SCF CONVERGED AFTER  15 CYCLES          *
               *****************************************************

Old exchange energy                            =    -37.017701042 Eh
New exchange energy                            =    -37.017748910 Eh
Exchange energy change after final integration =     -0.000047869 Eh
Total energy after final integration           =   -907.854032171 Eh
Final COS-X integration done in                =     4.851 sec

----------------
TOTAL SCF ENERGY
----------------

Total Energy       :         -907.85403217 Eh          -24703.96414 eV

Components:
Nuclear Repulsion  :         1381.26357023 Eh           37586.09259 eV
Electronic Energy  :        -2289.11760240 Eh          -62290.05673 eV
One Electron Energy:        -3962.25996808 Eh         -107818.57512 eV
Two Electron Energy:         1673.14236569 Eh           45528.51840 eV
Max COSX asymmetry :            0.00000483 Eh               0.00013 eV
CPCM Dielectric    :           -0.08567174 Eh              -2.33125 eV

Virial components:
Potential Energy   :        -1807.59182997 Eh          -49187.07432 eV
Kinetic Energy     :          899.73779780 Eh           24483.11018 eV
Virial Ratio       :            2.00902067


DFT components:
N(Alpha)           :       65.999960446164 electrons
N(Beta)            :       65.999960446164 electrons
N(Total)           :      131.999920892329 electrons
E(XC)              :      -84.638886063415 Eh       
DFET-embed. en.    :        0.000000000000 Eh       
CPCM Solvation Model Properties:
Surface-charge          :           -1.01170163
Charge-correction       :            0.00122908 Eh               0.03344 eV
Free-energy (cav+disp)  :  This term is not implemented in the current solvation scheme

---------------
SCF CONVERGENCE
---------------

  Last Energy change         ...   -1.7259e-08  Tolerance :   1.0000e-08
  Last MAX-Density change    ...    7.1054e-15  Tolerance :   1.0000e-07
  Last RMS-Density change    ...    5.4275e-17  Tolerance :   5.0000e-09
  Last Orbital Gradient      ...    1.0749e-06  Tolerance :   1.0000e-05
  Last Orbital Rotation      ...    2.4235e-06  Tolerance :   1.0000e-05

             **** THE GBW FILE WAS UPDATED (orca.gbw) ****
             **** DENSITY orca.scfp WAS UPDATED ****
             **** ENERGY FILE WAS UPDATED (orca.en.tmp) ****
             **** THE GBW FILE WAS UPDATED (orca.gbw) ****
             **** DENSITY orca.scfp WAS UPDATED ****
----------------
ORBITAL ENERGIES
----------------

  NO   OCC          E(Eh)            E(eV) 
   0   2.0000     -24.838935      -675.9018 
   1   2.0000     -19.298294      -525.1333 
   2   2.0000     -19.297035      -525.0990 
   3   2.0000     -19.257539      -524.0243 
   4   2.0000     -10.439397      -284.0704 
   5   2.0000     -10.436846      -284.0010 
   6   2.0000     -10.424115      -283.6546 
   7   2.0000     -10.399991      -282.9981 
   8   2.0000     -10.361066      -281.9389 
   9   2.0000     -10.358684      -281.8741 
  10   2.0000     -10.343709      -281.4666 
  11   2.0000     -10.339084      -281.3408 
  12   2.0000     -10.337267      -281.2913 
  13   2.0000     -10.336855      -281.2801 
  14   2.0000     -10.334639      -281.2198 
  15   2.0000     -10.333508      -281.1891 
  16   2.0000     -10.328098      -281.0418 
  17   2.0000     -10.324731      -280.9502 
  18   2.0000     -10.321549      -280.8636 
  19   2.0000      -2.120147       -57.6921 
  20   2.0000      -1.370361       -37.2894 
  21   2.0000      -1.233701       -33.5707 
  22   2.0000      -1.193925       -32.4884 
  23   2.0000      -1.178750       -32.0754 
  24   2.0000      -1.043617       -28.3983 
  25   2.0000      -1.010398       -27.4943 
  26   2.0000      -0.950885       -25.8749 
  27   2.0000      -0.929783       -25.3007 
  28   2.0000      -0.909338       -24.7443 
  29   2.0000      -0.881578       -23.9890 
  30   2.0000      -0.842144       -22.9159 
  31   2.0000      -0.798936       -21.7402 
  32   2.0000      -0.771841       -21.0029 
  33   2.0000      -0.771291       -20.9879 
  34   2.0000      -0.744062       -20.2470 
  35   2.0000      -0.710991       -19.3471 
  36   2.0000      -0.692763       -18.8510 
  37   2.0000      -0.670592       -18.2477 
  38   2.0000      -0.666417       -18.1341 
  39   2.0000      -0.639991       -17.4150 
  40   2.0000      -0.631112       -17.1734 
  41   2.0000      -0.622878       -16.9494 
  42   2.0000      -0.613966       -16.7069 
  43   2.0000      -0.607766       -16.5382 
  44   2.0000      -0.601558       -16.3692 
  45   2.0000      -0.593261       -16.1434 
  46   2.0000      -0.581407       -15.8209 
  47   2.0000      -0.577100       -15.7037 
  48   2.0000      -0.567688       -15.4476 
  49   2.0000      -0.560958       -15.2644 
  50   2.0000      -0.539100       -14.6696 
  51   2.0000      -0.535778       -14.5793 
  52   2.0000      -0.528516       -14.3817 
  53   2.0000      -0.512455       -13.9446 
  54   2.0000      -0.504372       -13.7247 
  55   2.0000      -0.498467       -13.5640 
  56   2.0000      -0.489426       -13.3180 
  57   2.0000      -0.485842       -13.2204 
  58   2.0000      -0.474305       -12.9065 
  59   2.0000      -0.454527       -12.3683 
  60   2.0000      -0.412786       -11.2325 
  61   2.0000      -0.406500       -11.0614 
  62   2.0000      -0.380157       -10.3446 
  63   2.0000      -0.379452       -10.3254 
  64   2.0000      -0.369984       -10.0678 
  65   2.0000      -0.347110        -9.4453 
  66   0.0000      -0.084911        -2.3105 
  67   0.0000      -0.018860        -0.5132 
  68   0.0000       0.006313         0.1718 
  69   0.0000       0.037062         1.0085 
  70   0.0000       0.039967         1.0876 
  71   0.0000       0.067222         1.8292 
  72   0.0000       0.094182         2.5628 
  73   0.0000       0.132920         3.6169 
  74   0.0000       0.142911         3.8888 
  75   0.0000       0.152694         4.1550 
  76   0.0000       0.153627         4.1804 
  77   0.0000       0.166234         4.5234 
  78   0.0000       0.188374         5.1259 
  79   0.0000       0.191381         5.2078 
  80   0.0000       0.200871         5.4660 
  81   0.0000       0.207909         5.6575 
  82   0.0000       0.210494         5.7278 
  83   0.0000       0.222148         6.0450 
  84   0.0000       0.226791         6.1713 
  85   0.0000       0.239533         6.5180 
  86   0.0000       0.247873         6.7450 
  87   0.0000       0.264468         7.1965 
  88   0.0000       0.284728         7.7479 
  89   0.0000       0.302304         8.2261 
  90   0.0000       0.305117         8.3027 
  91   0.0000       0.320994         8.7347 
  92   0.0000       0.325990         8.8706 
  93   0.0000       0.333386         9.0719 
  94   0.0000       0.348983         9.4963 
  95   0.0000       0.354570         9.6484 
  96   0.0000       0.363499         9.8913 
  97   0.0000       0.368179        10.0187 
  98   0.0000       0.388061        10.5597 
  99   0.0000       0.396135        10.7794 
 100   0.0000       0.402792        10.9605 
 101   0.0000       0.414874        11.2893 
 102   0.0000       0.415657        11.3106 
 103   0.0000       0.427833        11.6419 
 104   0.0000       0.431216        11.7340 
 105   0.0000       0.452184        12.3046 
 106   0.0000       0.464683        12.6447 
 107   0.0000       0.482073        13.1179 
 108   0.0000       0.495705        13.4888 
 109   0.0000       0.510664        13.8959 
 110   0.0000       0.514750        14.0071 
 111   0.0000       0.528049        14.3690 
 112   0.0000       0.536411        14.5965 
 113   0.0000       0.539774        14.6880 
 114   0.0000       0.544733        14.8229 
 115   0.0000       0.547939        14.9102 
 116   0.0000       0.570170        15.5151 
 117   0.0000       0.575355        15.6562 
 118   0.0000       0.582528        15.8514 
 119   0.0000       0.591667        16.1001 
 120   0.0000       0.594247        16.1703 
 121   0.0000       0.615284        16.7427 
 122   0.0000       0.619303        16.8521 
 123   0.0000       0.623652        16.9704 
 124   0.0000       0.638906        17.3855 
 125   0.0000       0.654292        17.8042 
 126   0.0000       0.655143        17.8274 
 127   0.0000       0.659762        17.9530 
 128   0.0000       0.666766        18.1436 
 129   0.0000       0.677268        18.4294 
 130   0.0000       0.683390        18.5960 
 131   0.0000       0.687272        18.7016 
 132   0.0000       0.695986        18.9388 
 133   0.0000       0.710697        19.3390 
 134   0.0000       0.717534        19.5251 
 135   0.0000       0.728336        19.8190 
 136   0.0000       0.732986        19.9456 
 137   0.0000       0.736626        20.0446 
 138   0.0000       0.745394        20.2832 
 139   0.0000       0.750143        20.4124 
 140   0.0000       0.761906        20.7325 
 141   0.0000       0.763096        20.7649 
 142   0.0000       0.776541        21.1308 
 143   0.0000       0.786949        21.4140 
 144   0.0000       0.788846        21.4656 
 145   0.0000       0.801569        21.8118 
 146   0.0000       0.804807        21.8999 
 147   0.0000       0.815555        22.1924 
 148   0.0000       0.820916        22.3383 
 149   0.0000       0.830286        22.5932 
 150   0.0000       0.835199        22.7269 
 151   0.0000       0.841719        22.9043 
 152   0.0000       0.858093        23.3499 
 153   0.0000       0.872860        23.7517 
 154   0.0000       0.880929        23.9713 
 155   0.0000       0.891432        24.2571 
 156   0.0000       0.901563        24.5328 
 157   0.0000       0.916450        24.9379 
 158   0.0000       0.928538        25.2668 
 159   0.0000       0.933843        25.4112 
 160   0.0000       0.952208        25.9109 
 161   0.0000       0.965462        26.2715 
 162   0.0000       0.979263        26.6471 
 163   0.0000       1.008254        27.4360 
 164   0.0000       1.020447        27.7678 
 165   0.0000       1.062267        28.9058 
 166   0.0000       1.087386        29.5893 
 167   0.0000       1.101730        29.9796 
 168   0.0000       1.120415        30.4880 
 169   0.0000       1.124850        30.6087 
 170   0.0000       1.144764        31.1506 
 171   0.0000       1.154599        31.4182 
 172   0.0000       1.161706        31.6116 
 173   0.0000       1.184397        32.2291 
 174   0.0000       1.194810        32.5124 
 175   0.0000       1.218620        33.1603 
 176   0.0000       1.240096        33.7447 
 177   0.0000       1.245600        33.8945 
 178   0.0000       1.253562        34.1111 
 179   0.0000       1.263440        34.3799 
 180   0.0000       1.281051        34.8592 
 181   0.0000       1.295828        35.2613 
 182   0.0000       1.309187        35.6248 
 183   0.0000       1.316112        35.8132 
 184   0.0000       1.325512        36.0690 
 185   0.0000       1.330055        36.1926 
 186   0.0000       1.348933        36.7063 
 187   0.0000       1.359480        36.9933 
 188   0.0000       1.376935        37.4683 
 189   0.0000       1.393751        37.9259 
 190   0.0000       1.406742        38.2794 
 191   0.0000       1.417113        38.5616 
 192   0.0000       1.458834        39.6969 
 193   0.0000       1.480741        40.2930 
 194   0.0000       1.497380        40.7458 
 195   0.0000       1.525892        41.5216 
 196   0.0000       1.533439        41.7270 
 197   0.0000       1.544086        42.0167 
 198   0.0000       1.550919        42.2027 
 199   0.0000       1.567472        42.6531 
 200   0.0000       1.579125        42.9702 
 201   0.0000       1.598818        43.5060 
 202   0.0000       1.617038        44.0018 
 203   0.0000       1.641355        44.6635 
 204   0.0000       1.644997        44.7626 
 205   0.0000       1.710114        46.5346 
 206   0.0000       1.727008        46.9943 
 207   0.0000       1.741907        47.3997 
 208   0.0000       1.750200        47.6254 
 209   0.0000       1.766543        48.0701 
 210   0.0000       1.772996        48.2457 
 211   0.0000       1.777523        48.3689 
 212   0.0000       1.788306        48.6623 
 213   0.0000       1.796438        48.8836 
 214   0.0000       1.806268        49.1510 
 215   0.0000       1.807211        49.1767 
 216   0.0000       1.820617        49.5415 
 217   0.0000       1.825821        49.6831 
 218   0.0000       1.833654        49.8963 
 219   0.0000       1.841446        50.1083 
 220   0.0000       1.867491        50.8170 
 221   0.0000       1.871037        50.9135 
 222   0.0000       1.876254        51.0555 
 223   0.0000       1.897727        51.6398 
 224   0.0000       1.902676        51.7744 
 225   0.0000       1.931336        52.5543 
 226   0.0000       1.949115        53.0381 
 227   0.0000       1.961749        53.3819 
 228   0.0000       1.972946        53.6866 
 229   0.0000       1.982722        53.9526 
 230   0.0000       2.004934        54.5570 
 231   0.0000       2.026251        55.1371 
 232   0.0000       2.031791        55.2878 
 233   0.0000       2.040870        55.5349 
 234   0.0000       2.048944        55.7546 
 235   0.0000       2.060321        56.0642 
 236   0.0000       2.073509        56.4230 
 237   0.0000       2.101333        57.1802 
 238   0.0000       2.132398        58.0255 
 239   0.0000       2.137620        58.1676 
 240   0.0000       2.160222        58.7826 
 241   0.0000       2.177298        59.2473 
 242   0.0000       2.183085        59.4047 
 243   0.0000       2.206349        60.0378 
 244   0.0000       2.226205        60.5781 
 245   0.0000       2.231242        60.7152 
 246   0.0000       2.247475        61.1569 
 247   0.0000       2.261526        61.5392 
 248   0.0000       2.283410        62.1348 
 249   0.0000       2.297471        62.5174 
 250   0.0000       2.324886        63.2634 
 251   0.0000       2.331451        63.4420 
 252   0.0000       2.339401        63.6583 
 253   0.0000       2.353254        64.0353 
 254   0.0000       2.364586        64.3437 
 255   0.0000       2.377815        64.7036 
 256   0.0000       2.389031        65.0088 
 257   0.0000       2.402342        65.3711 
 258   0.0000       2.417525        65.7842 
 259   0.0000       2.449581        66.6565 
 260   0.0000       2.458565        66.9010 
 261   0.0000       2.500256        68.0354 
 262   0.0000       2.542658        69.1892 
 263   0.0000       2.556315        69.5609 
 264   0.0000       2.573496        70.0284 
 265   0.0000       2.588497        70.4366 
 266   0.0000       2.603031        70.8321 
 267   0.0000       2.625948        71.4557 
 268   0.0000       2.651530        72.1518 
 269   0.0000       2.680079        72.9287 
 270   0.0000       2.691502        73.2395 
 271   0.0000       2.694201        73.3129 
 272   0.0000       2.710276        73.7504 
 273   0.0000       2.716969        73.9325 
 274   0.0000       2.743144        74.6447 
 275   0.0000       2.750780        74.8525 
 276   0.0000       2.757339        75.0310 
 277   0.0000       2.789418        75.9039 
 278   0.0000       2.799004        76.1648 
 279   0.0000       2.804706        76.3199 
 280   0.0000       2.817555        76.6696 
 281   0.0000       2.854358        77.6710 
 282   0.0000       2.861767        77.8726 
 283   0.0000       2.871397        78.1347 
 284   0.0000       2.907517        79.1176 
 285   0.0000       2.918142        79.4067 
 286   0.0000       3.019780        82.1724 
 287   0.0000       3.045231        82.8649 
 288   0.0000       3.053078        83.0785 
 289   0.0000       3.069473        83.5246 
 290   0.0000       3.109449        84.6124 
 291   0.0000       3.124378        85.0186 
 292   0.0000       3.148614        85.6781 
 293   0.0000       3.168915        86.2306 
 294   0.0000       3.186884        86.7195 
 295   0.0000       3.207866        87.2905 
 296   0.0000       3.216695        87.5307 
 297   0.0000       3.247640        88.3728 
 298   0.0000       3.270871        89.0049 
 299   0.0000       3.395511        92.3965 
 300   0.0000       3.413835        92.8952 
 301   0.0000       3.478238        94.6477 
 302   0.0000       3.543985        96.4367 
 303   0.0000       3.606113        98.1273 
 304   0.0000       3.644955        99.1843 
 305   0.0000       3.682062       100.1940 
 306   0.0000       3.713157       101.0401 
 307   0.0000       3.742102       101.8278 
 308   0.0000       3.785926       103.0203 
 309   0.0000       3.996662       108.7547 

                    ********************************
                    * MULLIKEN POPULATION ANALYSIS *
                    ********************************

-----------------------
MULLIKEN ATOMIC CHARGES
-----------------------
   0 O :   -0.237731
   1 C :    0.184277
   2 C :   -0.146748
   3 C :    0.030913
   4 C :    0.000015
   5 C :    0.021711
   6 C :   -0.065235
   7 C :    0.141002
   8 C :    0.101727
   9 C :   -0.111582
  10 C :    0.044614
  11 C :   -0.076211
  12 C :    0.293026
  13 F :   -0.157105
  14 C :   -0.126341
  15 C :    0.228793
  16 O :   -0.301304
  17 C :    0.201948
  18 O :   -0.305724
  19 H :    0.071049
  20 H :    0.056430
  21 H :    0.065252
  22 H :    0.060995
  23 H :    0.070873
  24 H :    0.076627
  25 H :    0.070748
  26 Li:    0.807981
Sum of atomic charges:    1.0000000

--------------------------------
MULLIKEN REDUCED ORBITAL CHARGES
--------------------------------
  0 O s       :     3.741270  s :     3.741270
      pz      :     1.464635  p :     4.477612
      px      :     1.370594
      py      :     1.642383
      dz2     :     0.002057  d :     0.018848
      dxz     :     0.004831
      dyz     :     0.000945
      dx2y2   :     0.005602
      dxy     :     0.005412
  1 C s       :     3.170477  s :     3.170477
      pz      :     0.799998  p :     2.555484
      px      :     0.895385
      py      :     0.860100
      dz2     :     0.006028  d :     0.089761
      dxz     :     0.022634
      dyz     :     0.007042
      dx2y2   :     0.025289
      dxy     :     0.028769
  2 C s       :     3.108368  s :     3.108368
      pz      :     1.017969  p :     3.000095
      px      :     1.001688
      py      :     0.980437
      dz2     :     0.003124  d :     0.038286
      dxz     :     0.006453
      dyz     :     0.004903
      dx2y2   :     0.012509
      dxy     :     0.011297
  3 C s       :     3.226965  s :     3.226965
      pz      :     0.864608  p :     2.706510
      px      :     0.911704
      py      :     0.930198
      dz2     :     0.002893  d :     0.035612
      dxz     :     0.003573
      dyz     :     0.006512
      dx2y2   :     0.010940
      dxy     :     0.011694
  4 C s       :     3.167611  s :     3.167611
      pz      :     0.963157  p :     2.797275
      px      :     0.911488
      py      :     0.922630
      dz2     :     0.002681  d :     0.035099
      dxz     :     0.004399
      dyz     :     0.004295
      dx2y2   :     0.011240
      dxy     :     0.012483
  5 C s       :     3.265373  s :     3.265373
      pz      :     0.863070  p :     2.677119
      px      :     0.939051
      py      :     0.874998
      dz2     :     0.002577  d :     0.035797
      dxz     :     0.007284
      dyz     :     0.003013
      dx2y2   :     0.011137
      dxy     :     0.011786
  6 C s       :     3.087328  s :     3.087328
      pz      :     1.075562  p :     2.938707
      px      :     0.903556
      py      :     0.959588
      dz2     :     0.003423  d :     0.039200
      dxz     :     0.003376
      dyz     :     0.006591
      dx2y2   :     0.014137
      dxy     :     0.011673
  7 C s       :     3.057228  s :     3.057228
      pz      :     0.923491  p :     2.759049
      px      :     0.920303
      py      :     0.915255
      dz2     :     0.003499  d :     0.042721
      dxz     :     0.006702
      dyz     :     0.006916
      dx2y2   :     0.012511
      dxy     :     0.013093
  8 C s       :     3.041141  s :     3.041141
      pz      :     0.945113  p :     2.813816
      px      :     0.993591
      py      :     0.875112
      dz2     :     0.004276  d :     0.043315
      dxz     :     0.007107
      dyz     :     0.006867
      dx2y2   :     0.011812
      dxy     :     0.013253
  9 C s       :     3.263155  s :     3.263155
      pz      :     0.977928  p :     2.814199
      px      :     0.890235
      py      :     0.946036
      dz2     :     0.002988  d :     0.034228
      dxz     :     0.003977
      dyz     :     0.005728
      dx2y2   :     0.011314
      dxy     :     0.010222
 10 C s       :     3.160920  s :     3.160920
      pz      :     0.885709  p :     2.757930
      px      :     0.950358
      py      :     0.921864
      dz2     :     0.002875  d :     0.036536
      dxz     :     0.007392
      dyz     :     0.003594
      dx2y2   :     0.011893
      dxy     :     0.010783
 11 C s       :     3.249739  s :     3.249739
      pz      :     0.999584  p :     2.793588
      px      :     0.876417
      py      :     0.917587
      dz2     :     0.003081  d :     0.032884
      dxz     :     0.004359
      dyz     :     0.004906
      dx2y2   :     0.011008
      dxy     :     0.009530
 12 C s       :     3.044765  s :     3.044765
      pz      :     0.899805  p :     2.571831
      px      :     0.729192
      py      :     0.942834
      dz2     :     0.007623  d :     0.090379
      dxz     :     0.017790
      dyz     :     0.009613
      dx2y2   :     0.027983
      dxy     :     0.027371
 13 F s       :     3.881920  s :     3.881920
      pz      :     1.862999  p :     5.266021
      px      :     1.522157
      py      :     1.880865
      dz2     :     0.001207  d :     0.009164
      dxz     :     0.002241
      dyz     :     0.000282
      dx2y2   :     0.003037
      dxy     :     0.002397
 14 C s       :     3.106071  s :     3.106071
      pz      :     1.125888  p :     2.983722
      px      :     0.944708
      py      :     0.913126
      dz2     :     0.003542  d :     0.036548
      dxz     :     0.006790
      dyz     :     0.003311
      dx2y2   :     0.011342
      dxy     :     0.011564
 15 C s       :     3.086631  s :     3.086631
      pz      :     0.744339  p :     2.590608
      px      :     0.915908
      py      :     0.930361
      dz2     :     0.006269  d :     0.093969
      dxz     :     0.014907
      dyz     :     0.011853
      dx2y2   :     0.029423
      dxy     :     0.031517
 16 O s       :     3.763233  s :     3.763233
      pz      :     1.392283  p :     4.521452
      px      :     1.415853
      py      :     1.713316
      dz2     :     0.002001  d :     0.016619
      dxz     :     0.004752
      dyz     :     0.000827
      dx2y2   :     0.004598
      dxy     :     0.004442
 17 C s       :     3.090633  s :     3.090633
      pz      :     0.735489  p :     2.614124
      px      :     0.946135
      py      :     0.932499
      dz2     :     0.005302  d :     0.093295
      dxz     :     0.008200
      dyz     :     0.017863
      dx2y2   :     0.024949
      dxy     :     0.036982
 18 O s       :     3.763391  s :     3.763391
      pz      :     1.406845  p :     4.525864
      px      :     1.757581
      py      :     1.361439
      dz2     :     0.001763  d :     0.016469
      dxz     :     0.000266
      dyz     :     0.005088
      dx2y2   :     0.005387
      dxy     :     0.003965
 19 H s       :     0.908335  s :     0.908335
      pz      :     0.006254  p :     0.020616
      px      :     0.008662
      py      :     0.005700
 20 H s       :     0.919565  s :     0.919565
      pz      :     0.003735  p :     0.024005
      px      :     0.015263
      py      :     0.005007
 21 H s       :     0.910977  s :     0.910977
      pz      :     0.004212  p :     0.023771
      px      :     0.010876
      py      :     0.008683
 22 H s       :     0.914970  s :     0.914970
      pz      :     0.003914  p :     0.024035
      px      :     0.003962
[...]
     70      -0.046019   0.013757  -0.006543   0.000096   0.100507   0.000859
     71      -0.010963   0.013173  -0.007874   0.000102   0.087857   0.000809
     72      -0.019992   0.002123   0.000158  -0.000603  -0.157362   0.001891
     73      -0.009056  -0.000208   0.000664  -0.003146  -0.822914   0.010010
     74      -0.005616   0.000681   0.000145  -0.000864  -0.226484   0.002748
     75       0.006004  -0.001282  -0.000374  -0.001264  -0.284312   0.004899
     76       0.047166  -0.002706   0.000409   0.001058   0.240920  -0.004149
     77       0.010085  -0.000512   0.000085   0.000050   0.008680  -0.000155
     78       0.012661   0.000722   0.000037  -0.000031  -0.000006  -0.000002
     79      -0.011622  -0.000208   0.000009  -0.000003   0.000017  -0.000002
     80       0.004013   0.000299   0.000005  -0.000005   0.000002   0.000002
                 78         79         80    
      0       0.000179  -0.000124   0.000152
      1       0.000011  -0.000015   0.000024
      2       0.000034  -0.000079   0.000102
      3      -0.000318   0.000754  -0.000951
      4      -0.000173  -0.000632   0.000811
      5       0.000068   0.000813  -0.001057
      6       0.000865   0.000075  -0.000145
      7      -0.000764   0.000166  -0.000214
      8       0.000093  -0.000067   0.000081
      9      -0.022410   0.000246  -0.000165
     10      -0.011254  -0.000002   0.000054
     11       0.003776  -0.000013   0.000000
     12      -0.053092   0.000257  -0.000097
     13       0.043733  -0.000158   0.000003
     14      -0.007256   0.000022   0.000006
     15       0.015440  -0.000011   0.000007
     16       0.052176   0.000333  -0.000414
     17      -0.006357  -0.000035   0.000042
     18       0.001780   0.000093  -0.000152
     19      -0.001805  -0.000089   0.000140
     20       0.000160   0.000020  -0.000019
     21       0.000169  -0.000172   0.000294
     22      -0.000242  -0.000125   0.000176
     23       0.000052  -0.000035   0.000061
     24      -0.000003   0.000332  -0.000441
     25      -0.000019   0.002189  -0.003442
     26      -0.000022   0.000660  -0.001011
     27       0.000096  -0.044156   0.062818
     28       0.000064  -0.016243   0.019991
     29       0.000035  -0.013912   0.018893
     30       0.000023   0.008100   0.007587
     31       0.000020   0.011658   0.041464
     32       0.000009   0.004217   0.011298
     33      -0.000145  -0.056327  -0.032428
     34       0.000110   0.046475   0.024406
     35       0.000001   0.001333   0.000290
     36       0.000028  -0.000944  -0.000724
     37      -0.000014  -0.003896  -0.002483
     38      -0.000004  -0.000911  -0.000605
     39      -0.000012   0.000259   0.000149
     40       0.000000   0.000298   0.000184
     41      -0.000003   0.000081   0.000061
     42      -0.000012   0.000484  -0.000281
     43       0.000041   0.000016  -0.000054
     44       0.000009  -0.000007  -0.000002
     45       0.000014  -0.000061  -0.000101
     46      -0.000104  -0.000037  -0.000154
     47       0.000026  -0.000001  -0.000031
     48      -0.000058   0.000022   0.000077
     49       0.000002   0.000001   0.000075
     50      -0.000015   0.000006   0.000016
     51       0.000124   0.000030   0.000014
     52       0.000784   0.000021  -0.000059
     53      -0.000048   0.000000   0.000022
     54       0.000035  -0.000002  -0.000007
     55      -0.000328  -0.000005   0.000039
     56       0.000033   0.000005  -0.000011
     57      -0.000726  -0.009691   0.012517
     58       0.001191   0.007937  -0.010189
     59      -0.001068  -0.003883   0.004766
     60       0.248022  -0.002242   0.001205
     61       0.086310  -0.000793   0.000454
     62      -0.034314   0.000341  -0.000198
     63       0.567693  -0.002428   0.000481
     64      -0.487848   0.002124  -0.000449
     65       0.077931  -0.000365   0.000107
     66      -0.133145  -0.000751   0.000931
     67      -0.576595  -0.003684   0.004604
     68       0.069844   0.000397  -0.000497
     69      -0.001211   0.507182  -0.695583
     70      -0.000442   0.173693  -0.235327
     71      -0.000420   0.153791  -0.209894
     72      -0.000056  -0.030385  -0.083443
     73      -0.000188  -0.136492  -0.440113
     74      -0.000055  -0.038259  -0.121160
     75       0.001460   0.622993   0.337783
     76      -0.001212  -0.520855  -0.280395
     77      -0.000040  -0.018187  -0.009178
     78       0.000023  -0.000002  -0.000010
     79       0.000018   0.000001  -0.000027
     80       0.000004   0.000008  -0.000008


-----------
IR SPECTRUM
-----------

 Mode   freq       eps      Int      T**2         TX        TY        TZ
       cm**-1   L/(mol*cm) km/mol    a.u.
----------------------------------------------------------------------------
  6:     51.22   0.000014    0.07  0.000084  (-0.007307 -0.005526  0.000510)
  7:     58.86   0.001487    7.52  0.007884  (-0.011755  0.000888  0.088007)
  8:     85.47   0.000207    1.05  0.000757  ( 0.002843 -0.003871 -0.027088)
  9:    108.67   0.007132   36.04  0.020481  ( 0.044306 -0.045643 -0.128198)
 10:    116.15   0.003639   18.39  0.009777  ( 0.013445  0.025459 -0.094595)
 11:    159.92   0.005107   25.81  0.009966  (-0.038049  0.007160  0.092016)
 12:    190.29   0.005171   26.13  0.008481  (-0.027943  0.034253  0.080787)
 13:    215.52   0.002652   13.40  0.003839  ( 0.033427 -0.031772  0.041383)
 14:    239.17   0.003024   15.28  0.003946  (-0.030110  0.045274 -0.031456)
 15:    264.71   0.004764   24.08  0.005617  (-0.057280  0.047312 -0.009856)
 16:    295.30   0.000530    2.68  0.000560  ( 0.023425  0.002661 -0.001959)
 17:    318.13   0.002366   11.96  0.002321  (-0.023759 -0.038730  0.016012)
 18:    336.65   0.004492   22.70  0.004164  (-0.036440 -0.051712  0.012741)
 19:    356.96   0.002735   13.82  0.002391  (-0.034886 -0.004663 -0.033949)
 20:    383.80   0.027320  138.06  0.022213  ( 0.061934  0.134571  0.016377)
 21:    386.27   0.011381   57.51  0.009194  (-0.095044 -0.011478  0.005399)
 22:    430.65   0.009257   46.78  0.006708  (-0.033500  0.009193 -0.074171)
 23:    448.53   0.003389   17.13  0.002358  (-0.043460  0.019358  0.009718)
 24:    460.37   0.006065   30.65  0.004111  (-0.058959 -0.020004  0.015320)
 25:    491.04   0.019784   99.98  0.012573  ( 0.058314  0.095365 -0.008824)
 26:    496.50   0.003441   17.39  0.002163  ( 0.008142 -0.043521 -0.014227)
 27:    517.10   0.006122   30.94  0.003695  ( 0.029405  0.051085  0.014845)
 28:    524.47   0.004539   22.94  0.002701  ( 0.042818  0.028688  0.006659)
 29:    554.72   0.003746   18.93  0.002107  (-0.021602 -0.010963 -0.038993)
 30:    583.83   0.003688   18.64  0.001971  ( 0.032858  0.021407 -0.020820)
 31:    624.71   0.002108   10.65  0.001053  (-0.003209  0.022800  0.022870)
 32:    653.50   0.000794    4.01  0.000379  (-0.003974  0.016943 -0.008742)
 33:    682.30   0.005974   30.19  0.002732  (-0.010002 -0.050476  0.009180)
 34:    734.59   0.004670   23.60  0.001984  ( 0.039202  0.017339 -0.012108)
 35:    757.28   0.001555    7.86  0.000641  ( 0.009168  0.020571  0.011556)
 36:    778.10   0.006942   35.08  0.002784  ( 0.014133 -0.043832 -0.025751)
 37:    787.70   0.014216   71.84  0.005632  (-0.023455 -0.021154  0.068077)
 38:    824.95   0.008254   41.71  0.003122  (-0.014836  0.008834 -0.053143)
 39:    840.19   0.005098   25.76  0.001894  ( 0.021238  0.021701 -0.031170)
 40:    880.70   0.013410   67.77  0.004752  (-0.029439  0.045491 -0.042608)
 41:    890.90   0.001668    8.43  0.000584  ( 0.005763 -0.021362 -0.009734)
 42:    927.10   0.004026   20.35  0.001355  (-0.033539 -0.014467 -0.004599)
 43:    954.52   0.000319    1.61  0.000104  (-0.001051 -0.009722 -0.002967)
 44:    996.88   0.002050   10.36  0.000642  (-0.018488  0.017282 -0.001136)
 45:    998.42   0.004159   21.02  0.001300  (-0.034387  0.010718  0.001559)
 46:   1044.75   0.000402    2.03  0.000120  ( 0.006270  0.001490 -0.008860)
 47:   1053.06   0.000164    0.83  0.000049  (-0.000424  0.006945 -0.000574)
 48:   1067.49   0.000068    0.35  0.000020  (-0.002006  0.003188 -0.002403)
 49:   1078.95   0.002018   10.20  0.000584  (-0.023877  0.000345  0.003654)
 50:   1103.70   0.002592   13.10  0.000733  (-0.026248 -0.005407 -0.003834)
 51:   1112.05   0.000669    3.38  0.000188  ( 0.006907  0.011390 -0.003202)
 52:   1142.07   0.014388   72.71  0.003932  ( 0.060188 -0.016349  0.006458)
 53:   1171.95   0.001094    5.53  0.000291  ( 0.014251 -0.009385  0.000154)
 54:   1193.54   0.002198   11.11  0.000575  (-0.002899 -0.023786 -0.000625)
 55:   1260.62   0.015579   78.73  0.003856  (-0.028575 -0.049516  0.024251)
 56:   1287.97   0.021102  106.64  0.005113  (-0.061897  0.035463 -0.004896)
 57:   1304.04   0.041923  211.86  0.010032  (-0.034733  0.093822  0.004846)
 58:   1329.22   0.001359    6.87  0.000319  ( 0.002379 -0.016896  0.005294)
 59:   1357.27   0.008458   42.74  0.001945  (-0.009882 -0.042950  0.001533)
 60:   1364.44   0.032485  164.17  0.007430  (-0.077140 -0.036265 -0.012804)
 61:   1385.90   0.013870   70.09  0.003123  ( 0.055838 -0.001373  0.001808)
 62:   1433.16   0.014424   72.89  0.003141  ( 0.051803 -0.017972  0.011581)
 63:   1492.57   0.015401   77.83  0.003220  ( 0.056094  0.008568  0.000250)
 64:   1506.58   0.032138  162.41  0.006657  ( 0.021211  0.078769 -0.001522)
 65:   1520.17   0.033131  167.43  0.006801  (-0.073192  0.037995  0.000740)
 66:   1540.29   0.003302   16.69  0.000669  (-0.024149 -0.006207 -0.006872)
 67:   1658.67   0.045699  230.94  0.008598  (-0.089595 -0.023815  0.001817)
 68:   1670.22   0.083473  421.84  0.015596  ( 0.025859  0.121844  0.009024)
 69:   1673.92   0.004744   23.97  0.000884  (-0.029692 -0.000380  0.001594)
 70:   1692.81   0.028244  142.73  0.005207  (-0.028523 -0.060523 -0.027021)
 71:   1789.95   0.320049  1617.40  0.055798  ( 0.157283  0.175554  0.015517)
 72:   1803.34   0.007214   36.46  0.001248  ( 0.017757 -0.010760  0.028588)
 73:   1842.15   0.076757  387.90  0.013003  ( 0.099305  0.055359 -0.008765)
 74:   3026.97   0.012750   64.44  0.001314  ( 0.021037 -0.023737  0.017565)
 75:   3228.47   0.000236    1.19  0.000023  ( 0.003017  0.003621 -0.000781)
 76:   3234.30   0.000636    3.22  0.000061  (-0.005281  0.005690  0.001071)
 77:   3237.11   0.000845    4.27  0.000081  ( 0.005302  0.007156 -0.001452)
 78:   3247.02   0.000153    0.77  0.000015  (-0.003773  0.000213 -0.000660)
 79:   3247.82   0.000159    0.80  0.000015  ( 0.000750 -0.003822  0.000266)
 80:   3252.57   0.000725    3.66  0.000070  ( 0.005096 -0.006150 -0.002403)

* The epsilon (eps) is given for a Dirac delta lineshape.
** The dipole moment derivative (T) already includes vibrational overlap.

The first frequency considered to be a vibration is 6
The total number of vibrations considered is 75


--------------------------
THERMOCHEMISTRY AT 298.15K
--------------------------

Temperature         ... 298.15 K
Pressure            ... 1.00 atm
Total Mass          ... 261.16 AMU

Throughout the following assumptions are being made:
  (1) The electronic state is orbitally nondegenerate
  (2) There are no thermally accessible electronically excited states
  (3) Hindered rotations indicated by low frequency modes are not
      treated as such but are treated as vibrations and this may
      cause some error
  (4) All equations used are the standard statistical mechanics
      equations for an ideal gas
  (5) All vibrations are strictly harmonic

freq.      51.22  E(vib)   ...       0.52 
freq.      58.86  E(vib)   ...       0.51 
freq.      85.47  E(vib)   ...       0.48 
freq.     108.67  E(vib)   ...       0.45 
freq.     116.15  E(vib)   ...       0.44 
freq.     159.92  E(vib)   ...       0.39 
freq.     190.29  E(vib)   ...       0.36 
freq.     215.52  E(vib)   ...       0.34 
freq.     239.17  E(vib)   ...       0.31 
freq.     264.71  E(vib)   ...       0.29 
freq.     295.30  E(vib)   ...       0.27 
freq.     318.13  E(vib)   ...       0.25 
freq.     336.65  E(vib)   ...       0.24 
freq.     356.96  E(vib)   ...       0.22 
freq.     383.80  E(vib)   ...       0.20 
freq.     386.27  E(vib)   ...       0.20 
freq.     430.65  E(vib)   ...       0.18 
freq.     448.53  E(vib)   ...       0.17 
freq.     460.37  E(vib)   ...       0.16 
freq.     491.04  E(vib)   ...       0.14 
freq.     496.50  E(vib)   ...       0.14 
freq.     517.10  E(vib)   ...       0.13 
freq.     524.47  E(vib)   ...       0.13 
freq.     554.72  E(vib)   ...       0.12 
freq.     583.83  E(vib)   ...       0.11 
freq.     624.71  E(vib)   ...       0.09 
freq.     653.50  E(vib)   ...       0.08 
freq.     682.30  E(vib)   ...       0.08 
freq.     734.59  E(vib)   ...       0.06 
freq.     757.28  E(vib)   ...       0.06 
freq.     778.10  E(vib)   ...       0.05 
freq.     787.70  E(vib)   ...       0.05 
freq.     824.95  E(vib)   ...       0.04 
freq.     840.19  E(vib)   ...       0.04 
freq.     880.70  E(vib)   ...       0.04 
freq.     890.90  E(vib)   ...       0.04 
freq.     927.10  E(vib)   ...       0.03 
freq.     954.52  E(vib)   ...       0.03 
freq.     996.88  E(vib)   ...       0.02 
freq.     998.42  E(vib)   ...       0.02 
freq.    1044.75  E(vib)   ...       0.02 
freq.    1053.06  E(vib)   ...       0.02 
freq.    1067.49  E(vib)   ...       0.02 
freq.    1078.95  E(vib)   ...       0.02 
freq.    1103.70  E(vib)   ...       0.02 
freq.    1112.05  E(vib)   ...       0.01 
freq.    1142.07  E(vib)   ...       0.01 
freq.    1171.95  E(vib)   ...       0.01 
freq.    1193.54  E(vib)   ...       0.01 
freq.    1260.62  E(vib)   ...       0.01 
freq.    1287.97  E(vib)   ...       0.01 
freq.    1304.04  E(vib)   ...       0.01 
freq.    1329.22  E(vib)   ...       0.01 
freq.    1357.27  E(vib)   ...       0.01 
freq.    1364.44  E(vib)   ...       0.01 
freq.    1385.90  E(vib)   ...       0.00 
freq.    1433.16  E(vib)   ...       0.00 
freq.    1492.57  E(vib)   ...       0.00 
freq.    1506.58  E(vib)   ...       0.00 
freq.    1520.17  E(vib)   ...       0.00 
freq.    1540.29  E(vib)   ...       0.00 
freq.    1658.67  E(vib)   ...       0.00 
freq.    1670.22  E(vib)   ...       0.00 
freq.    1673.92  E(vib)   ...       0.00 
freq.    1692.81  E(vib)   ...       0.00 
freq.    1789.95  E(vib)   ...       0.00 
freq.    1803.34  E(vib)   ...       0.00 
freq.    1842.15  E(vib)   ...       0.00 
freq.    3026.97  E(vib)   ...       0.00 
freq.    3228.47  E(vib)   ...       0.00 
freq.    3234.30  E(vib)   ...       0.00 
freq.    3237.11  E(vib)   ...       0.00 
freq.    3247.02  E(vib)   ...       0.00 
freq.    3247.82  E(vib)   ...       0.00 
freq.    3252.57  E(vib)   ...       0.00 

------------
INNER ENERGY
------------

The inner energy is: U= E(el) + E(ZPE) + E(vib) + E(rot) + E(trans)
    E(el)   - is the total energy from the electronic structure calculation
              = E(kin-el) + E(nuc-el) + E(el-el) + E(nuc-nuc)
    E(ZPE)  - the the zero temperature vibrational energy from the frequency calculation
    E(vib)  - the the finite temperature correction to E(ZPE) due to population
              of excited vibrational states
    E(rot)  - is the rotational thermal energy
    E(trans)- is the translational thermal energy

Summary of contributions to the inner energy U:
Electronic energy                ...   -907.86851994 Eh
Zero point energy                ...      0.18626579 Eh     116.88 kcal/mol
Thermal vibrational correction   ...      0.01228590 Eh       7.71 kcal/mol
Thermal rotational correction    ...      0.00141627 Eh       0.89 kcal/mol
Thermal translational correction ...      0.00141627 Eh       0.89 kcal/mol
-----------------------------------------------------------------------
Total thermal energy                   -907.66713570 Eh


Summary of corrections to the electronic energy:
(perhaps to be used in another calculation)
Total thermal correction                  0.01511844 Eh       9.49 kcal/mol
Non-thermal (ZPE) correction              0.18626579 Eh     116.88 kcal/mol
-----------------------------------------------------------------------
Total correction                          0.20138423 Eh     126.37 kcal/mol


--------
ENTHALPY
--------

The enthalpy is H = U + kB*T
                kB is Boltzmann's constant
Total free energy                 ...   -907.66713570 Eh 
Thermal Enthalpy correction       ...      0.00094421 Eh       0.59 kcal/mol
-----------------------------------------------------------------------
Total Enthalpy                    ...   -907.66619149 Eh


Note: Only C1 symmetry has been detected, increase convergence thresholds 
      if your molecule has a higher symmetry. Symmetry factor of 1.0 is   
      used for the rotational entropy correction. 
 

Note: Rotational entropy computed according to Herzberg 
Infrared and Raman Spectra, Chapter V,1, Van Nostrand Reinhold, 1945 
Point Group:  C1, Symmetry Number:   1  
Rotational constants in cm-1:     0.017002     0.011455     0.007024 

Vibrational entropy computed according to the QRRHO of S. Grimme
Chem.Eur.J. 2012 18 9955


-------
ENTROPY
-------

The entropy contributions are T*S = T*(S(el)+S(vib)+S(rot)+S(trans))
     S(el)   - electronic entropy
     S(vib)  - vibrational entropy
     S(rot)  - rotational entropy
     S(trans)- translational entropy
The entropies will be listed as multiplied by the temperature to get
units of energy

Electronic entropy                ...      0.00000000 Eh      0.00 kcal/mol
Vibrational entropy               ...      0.02081842 Eh     13.06 kcal/mol
Rotational entropy                ...      0.01588505 Eh      9.97 kcal/mol
Translational entropy             ...      0.02023079 Eh     12.69 kcal/mol
-----------------------------------------------------------------------
Final entropy term                ...      0.05693427 Eh     35.73 kcal/mol

In case the symmetry of your molecule has not been determined correctly
or in case you have a reason to use a different symmetry number we print 
out the resulting rotational entropy values for sn=1,12 :
 --------------------------------------------------------
|  sn= 1 | S(rot)=       0.01588505 Eh      9.97 kcal/mol|
|  sn= 2 | S(rot)=       0.01523060 Eh      9.56 kcal/mol|
|  sn= 3 | S(rot)=       0.01484777 Eh      9.32 kcal/mol|
|  sn= 4 | S(rot)=       0.01457614 Eh      9.15 kcal/mol|
|  sn= 5 | S(rot)=       0.01436545 Eh      9.01 kcal/mol|
|  sn= 6 | S(rot)=       0.01419331 Eh      8.91 kcal/mol|
|  sn= 7 | S(rot)=       0.01404776 Eh      8.82 kcal/mol|
|  sn= 8 | S(rot)=       0.01392168 Eh      8.74 kcal/mol|
|  sn= 9 | S(rot)=       0.01381048 Eh      8.67 kcal/mol|
|  sn=10 | S(rot)=       0.01371100 Eh      8.60 kcal/mol|
|  sn=11 | S(rot)=       0.01362101 Eh      8.55 kcal/mol|
|  sn=12 | S(rot)=       0.01353885 Eh      8.50 kcal/mol|
 --------------------------------------------------------


-------------------
GIBBS FREE ENERGY
-------------------

The Gibbs free energy is G = H - T*S

Total enthalpy                    ...   -907.66619149 Eh 
Total entropy correction          ...     -0.05693427 Eh    -35.73 kcal/mol
-----------------------------------------------------------------------
Final Gibbs free energy         ...   -907.72312576 Eh

For completeness - the Gibbs free energy minus the electronic energy
G-E(el)                           ...      0.14539417 Eh     91.24 kcal/mol


Timings for individual modules:

Sum of individual times         ...     2193.501 sec (=  36.558 min)
GTO integral calculation        ...       77.659 sec (=   1.294 min)   3.5 %
SCF iterations                  ...     1064.862 sec (=  17.748 min)  48.5 %
SCF Gradient evaluation         ...      129.706 sec (=   2.162 min)   5.9 %
Geometry relaxation             ...        0.471 sec (=   0.008 min)   0.0 %
Analytical frequency calculation...      920.803 sec (=  15.347 min)  42.0 %
                             ****ORCA TERMINATED NORMALLY****
TOTAL RUN TIME: 0 days 0 hours 36 minutes 59 seconds 479 msec
