i163

                                 *****************
                                 * O   R   C   A *
                                 *****************

                                            #,                                       
                                            ###                                      
                                            ####                                     
                                            #####                                    
                                            ######                                   
                                           ########,                                 
                                     ,,################,,,,,                         
                               ,,#################################,,                 
                          ,,##########################################,,             
                       ,#########################################, ''#####,          
                    ,#############################################,,   '####,        
                  ,##################################################,,,,####,       
                ,###########''''           ''''###############################       
              ,#####''   ,,,,##########,,,,          '''####'''          '####       
            ,##' ,,,,###########################,,,                        '##       
           ' ,,###''''                  '''############,,,                           
         ,,##''                                '''############,,,,        ,,,,,,###''
      ,#''                                            '''#######################'''  
     '                                                          ''''####''''         
             ,#######,   #######,   ,#######,      ##                                
            ,#'     '#,  ##    ##  ,#'     '#,    #''#        ######   ,####,        
            ##       ##  ##   ,#'  ##            #'  '#       #        #'  '#        
            ##       ##  #######   ##           ,######,      #####,   #    #        
            '#,     ,#'  ##    ##  '#,     ,#' ,#      #,         ##   #,  ,#        
             '#######'   ##     ##  '#######'  #'      '#     #####' # '####'        



                  #######################################################
                  #                        -***-                        #
                  #          Department of theory and spectroscopy      #
                  #    Directorship and core code : Frank Neese         #
                  #        Max Planck Institute fuer Kohlenforschung    #
                  #                Kaiser Wilhelm Platz 1               #
                  #                 D-45470 Muelheim/Ruhr               #
                  #                      Germany                        #
                  #                                                     #
                  #                  All rights reserved                #
                  #                        -***-                        #
                  #######################################################


                         Program Version 5.0.3 -  RELEASE  -


 With contributions from (in alphabetic order):
   Daniel Aravena         : Magnetic Suceptibility
   Michael Atanasov       : Ab Initio Ligand Field Theory (pilot matlab implementation)
   Alexander A. Auer      : GIAO ZORA, VPT2 properties, NMR spectrum
   Ute Becker             : Parallelization
   Giovanni Bistoni       : ED, misc. LED, open-shell LED, HFLD
   Martin Brehm           : Molecular dynamics
   Dmytro Bykov           : SCF Hessian
   Vijay G. Chilkuri      : MRCI spin determinant printing, contributions to CSF-ICE
   Dipayan Datta          : RHF DLPNO-CCSD density
   Achintya Kumar Dutta   : EOM-CC, STEOM-CC
   Dmitry Ganyushin       : Spin-Orbit,Spin-Spin,Magnetic field MRCI
   Miquel Garcia          : C-PCM and meta-GGA Hessian, CC/C-PCM, Gaussian charge scheme
   Yang Guo               : DLPNO-NEVPT2, F12-NEVPT2, CIM, IAO-localization
   Andreas Hansen         : Spin unrestricted coupled pair/coupled cluster methods
   Benjamin Helmich-Paris : MC-RPA, TRAH-SCF, COSX integrals
   Lee Huntington         : MR-EOM, pCC
   Robert Izsak           : Overlap fitted RIJCOSX, COSX-SCS-MP3, EOM
   Marcus Kettner         : VPT2
   Christian Kollmar      : KDIIS, OOCD, Brueckner-CCSD(T), CCSD density, CASPT2, CASPT2-K
   Simone Kossmann        : Meta GGA functionals, TD-DFT gradient, OOMP2, MP2 Hessian
   Martin Krupicka        : Initial AUTO-CI
   Lucas Lang             : DCDCAS
   Marvin Lechner         : AUTO-CI (C++ implementation), FIC-MRCC
   Dagmar Lenk            : GEPOL surface, SMD
   Dimitrios Liakos       : Extrapolation schemes; Compound Job, initial MDCI parallelization
   Dimitrios Manganas     : Further ROCIS development; embedding schemes
   Dimitrios Pantazis     : SARC Basis sets
   Anastasios Papadopoulos: AUTO-CI, single reference methods and gradients
   Taras Petrenko         : DFT Hessian,TD-DFT gradient, ASA, ECA, R-Raman, ABS, FL, XAS/XES, NRVS
   Peter Pinski           : DLPNO-MP2, DLPNO-MP2 Gradient
   Christoph Reimann      : Effective Core Potentials
   Marius Retegan         : Local ZFS, SOC
   Christoph Riplinger    : Optimizer, TS searches, QM/MM, DLPNO-CCSD(T), (RO)-DLPNO pert. Triples
   Tobias Risthaus        : Range-separated hybrids, TD-DFT gradient, RPA, STAB
   Michael Roemelt        : Original ROCIS implementation
   Masaaki Saitow         : Open-shell DLPNO-CCSD energy and density
   Barbara Sandhoefer     : DKH picture change effects
   Avijit Sen             : IP-ROCIS
   Kantharuban Sivalingam : CASSCF convergence, NEVPT2, FIC-MRCI
   Bernardo de Souza      : ESD, SOC TD-DFT
   Georgi Stoychev        : AutoAux, RI-MP2 NMR, DLPNO-MP2 response
   Willem Van den Heuvel  : Paramagnetic NMR
   Boris Wezisla          : Elementary symmetry handling
   Frank Wennmohs         : Technical directorship


 We gratefully acknowledge several colleagues who have allowed us to
 interface, adapt or use parts of their codes:
   Stefan Grimme, W. Hujo, H. Kruse, P. Pracht,  : VdW corrections, initial TS optimization,
                  C. Bannwarth, S. Ehlert          DFT functionals, gCP, sTDA/sTD-DF
   Ed Valeev, F. Pavosevic, A. Kumar             : LibInt (2-el integral package), F12 methods
   Garnet Chan, S. Sharma, J. Yang, R. Olivares  : DMRG
   Ulf Ekstrom                                   : XCFun DFT Library
   Mihaly Kallay                                 : mrcc  (arbitrary order and MRCC methods)
   Jiri Pittner, Ondrej Demel                    : Mk-CCSD
   Frank Weinhold                                : gennbo (NPA and NBO analysis)
   Christopher J. Cramer and Donald G. Truhlar   : smd solvation model
   Lars Goerigk                                  : TD-DFT with DH, B97 family of functionals
   V. Asgeirsson, H. Jonsson                     : NEB implementation
   FAccTs GmbH                                   : IRC, NEB, NEB-TS, DLPNO-Multilevel, CI-OPT
                                                   MM, QMMM, 2- and 3-layer-ONIOM, Crystal-QMMM,
                                                   LR-CPCM, SF, NACMEs, symmetry and pop. for TD-DFT,
                                                   nearIR, NL-DFT gradient (VV10), updates on ESD,
                                                   ML-optimized integration grids
   S Lehtola, MJT Oliveira, MAL Marques          : LibXC Library
   Liviu Ungur et al                             : ANISO software


 Your calculation uses the libint2 library for the computation of 2-el integrals
 For citations please refer to: http://libint.valeyev.net

 Your ORCA version has been built with support for libXC version: 5.1.0
 For citations please refer to: https://tddft.org/programs/libxc/

 This ORCA versions uses:
   CBLAS   interface :  Fast vector & matrix operations
   LAPACKE interface :  Fast linear algebra routines
   SCALAPACK package :  Parallel linear algebra routines
   Shared memory     :  Shared parallel matrices
   BLAS/LAPACK       :  OpenBLAS 0.3.15  USE64BITINT DYNAMIC_ARCH NO_AFFINITY Zen SINGLE_THREADED
        Core in use  :  Zen
   Copyright (c) 2011-2014, The OpenBLAS Project


Your calculation utilizes the atom-pairwise dispersion correction
with the zero-damping scheme (D30)
Cite in your paper:
S.Grimme, J.Antony, S.Ehrlich and H.Krieg, J.Chem.Phys., 132, (2010), 154104 
   

XCFun DFT library Copyright 2009-2010 Ulf Ekstrom and contributors.
See http://admol.org/xcfun for more information.
This is free software; see the source code for copying conditions.
There is ABSOLUTELY NO WARRANTY; not even for MERCHANTABILITY or FITNESS FOR A PARTICULAR PURPOSE.
For details see the documentation.
Scientific users of this library should cite U. Ekstrom, L. Visscher, R. Bast, A. J. Thorvaldsen and K. Ruud;
J.Chem.Theor.Comp. 2010, DOI: 10.1021/ct100117s
XCFun Version 0.99 

================================================================================

----- Orbital basis set information -----
Your calculation utilizes the basis: def2-SVP
   F. Weigend and R. Ahlrichs, Phys. Chem. Chem. Phys. 7, 3297 (2005).

----- AuxJ basis set information -----
Your calculation utilizes the auxiliary basis: def2/J
   F. Weigend, Phys. Chem. Chem. Phys. 8, 1057 (2006).

----- AuxC basis set information -----
Your calculation utilizes the auxiliary basis: def2-SVP/C
  H-La, Hf-Rn : A. Hellweg, C. Hattig, S. Hofener and W. Klopper, Theor. Chem. Acc. 117, 587 (2007).
        Ce-Lu : J. Chmela and M. E. Harding, Mol. Phys. (2018).

----- AuxJK basis set information -----
Your calculation utilizes the auxiliary basis: def2/JK
   H-Ba, Hf-Rn: F. Weigend, J. Comput. Chem. 29, 167 (2008).

================================================================================
                                        WARNINGS
                       Please study these warnings very carefully!
================================================================================


WARNING: Geometry Optimization
  ===> : Switching off AutoStart
         For restart on a previous wavefunction, please use MOREAD

INFO   : the flag for use of the SHARK integral package has been found!

================================================================================
                                       INPUT FILE
================================================================================
NAME = orca.inp
|  1> ! wB97X-D3   def2-SVP def2-SVP/C def2/J  def2/JK   CPCM(Water) opt freq 
|  2> %pal nprocs 32
|  3> end
|  4> %maxcore 20000
|  5> %scf
|  6> MaxIter 100
|  7> end
|  8> %geom
|  9> MaxIter 100
| 10> end
| 11> %output printlevel small
| 12> print[P_Hirshfeld] 1
| 13> print[P_Loewdin] 1
| 14> print[P_Mulliken] 1
| 15> print[P_NatPop] 1
| 16>  end 
| 17> *xyz 1 1 
| 18> C   4.086772 2.931262 0.503994
| 19> C   4.403352 1.828154 -0.169412
| 20> C   3.60337 0.598144 -0.141799
| 21> C   4.227652 -0.661889 -0.130019
| 22> C   3.458198 -1.790507 -0.035795
| 23> C   2.057736 -1.68133 0.020525
| 24> C   1.183887 -2.804634 0.117346
| 25> C   -0.15871 -2.63608 0.144033
| 26> C   -0.73778 -1.332606 0.06416
| 27> C   -2.12695 -1.114794 0.070181
| 28> C   -2.645415 0.155228 -0.019751
| 29> C   -4.132223 0.471842 -0.010433
| 30> C   -4.976994 -0.798669 0.061897
| 31> C   -4.445953 1.341862 1.215134
| 32> C   -4.499656 1.228897 -1.293891
| 33> C   -1.707808 1.2035 -0.119311
| 34> N   -0.403278 1.040223 -0.126973
| 35> C   0.094046 -0.212677 -0.031608
| 36> C   1.518796 -0.387883 -0.037648
| 37> N   2.287301 0.713551 -0.11251
| 38> H   3.236032 2.974658 1.175922
| 39> H   4.711966 3.811454 0.465427
| 40> H   5.324634 1.796015 -0.740456
| 41> H   5.306113 -0.72666 -0.171877
| 42> H   3.922009 -2.768309 -0.005196
| 43> H   1.612328 -3.796992 0.169792
| 44> H   -0.814963 -3.493233 0.220464
| 45> H   -2.779409 -1.974889 0.145022
| 46> H   -4.792973 -1.369224 0.974101
| 47> H   -6.034519 -0.535441 0.061402
| 48> H   -4.811303 -1.454896 -0.794558
| 49> H   -5.51197 1.56893 1.249527
| 50> H   -3.916605 2.295635 1.195147
| 51> H   -4.183875 0.832587 2.143178
| 52> H   -5.568833 1.442578 -1.30642
| 53> H   -3.984824 2.186701 -1.377716
| 54> H   -4.267466 0.643113 -2.183871
| 55> H   -2.055678 2.226842 -0.196801
| 56> Li   1.133004 2.261111 -0.328994
| 57> *
| 58> 
| 59>                          ****END OF INPUT****
================================================================================

                       *****************************
                       * Geometry Optimization Run *
                       *****************************

Geometry optimization settings:
Update method            Update   .... BFGS
Choice of coordinates    CoordSys .... Z-matrix Internals
Initial Hessian          InHess   .... Almoef's Model

Convergence Tolerances:
Energy Change            TolE     ....  5.0000e-06 Eh
Max. Gradient            TolMAXG  ....  3.0000e-04 Eh/bohr
RMS Gradient             TolRMSG  ....  1.0000e-04 Eh/bohr
Max. Displacement        TolMAXD  ....  4.0000e-03 bohr
RMS Displacement         TolRMSD  ....  2.0000e-03 bohr
Strict Convergence                ....  False
------------------------------------------------------------------------------
                        ORCA OPTIMIZATION COORDINATE SETUP
------------------------------------------------------------------------------

The optimization will be done in new redundant internal coordinates
Making redundant internal coordinates   ...  (new redundants) done
Evaluating the initial hessian          ...  (Almloef) done
Evaluating the coordinates              ...  done
Calculating the B-matrix                .... done
Calculating the G-matrix                .... done
Diagonalizing the G-matrix              .... done
Small eigenvalue found = 7.840e-03
Small eigenvalue found = 1.659e-02
Small eigenvalue found = 2.339e-02
Small eigenvalue found = 2.965e-02
The first mode is                       ....  113
The number of degrees of freedom        ....  111

    -----------------------------------------------------------------
                    Redundant Internal Coordinates


    -----------------------------------------------------------------
         Definition                    Initial Value    Approx d2E/dq
    -----------------------------------------------------------------
      1. B(C   1,C   0)                  1.3306         0.777102   
      2. B(C   2,C   1)                  1.4675         0.469934   
      3. B(C   3,C   2)                  1.4063         0.588581   
      4. B(C   4,C   3)                  1.3692         0.674403   
      5. B(C   5,C   4)                  1.4058         0.589478   
      6. B(C   6,C   5)                  1.4265         0.546466   
      7. B(C   7,C   6)                  1.3534         0.714715   
      8. B(C   8,C   7)                  1.4285         0.542300   
      9. B(C   9,C   8)                  1.4062         0.588795   
     10. B(C  10,C   9)                  1.3747         0.660876   
     11. B(C  11,C  10)                  1.5202         0.387306   
     12. B(C  12,C  11)                  1.5274         0.377107   
     13. B(C  13,C  11)                  1.5354         0.366271   
     14. B(C  14,C  11)                  1.5347         0.367136   
     15. B(C  15,C  10)                  1.4099         0.580693   
     16. B(N  16,C  15)                  1.3147         0.737841   
     17. B(C  17,N  16)                  1.3514         0.644937   
     18. B(C  17,C   8)                  1.3983         0.605950   
     19. B(C  18,C  17)                  1.4355         0.528633   
     20. B(C  18,C   5)                  1.4024         0.596880   
     21. B(N  19,C  18)                  1.3451         0.659889   
     22. B(N  19,C   2)                  1.3214         0.719867   
     23. B(H  20,C   0)                  1.0850         0.366835   
     24. B(H  21,C   0)                  1.0803         0.373135   
     25. B(H  22,C   1)                  1.0844         0.367609   
     26. B(H  23,C   3)                  1.0812         0.371911   
     27. B(H  24,C   4)                  1.0827         0.369941   
     28. B(H  25,C   6)                  1.0822         0.370612   
     29. B(H  26,C   7)                  1.0822         0.370527   
     30. B(H  27,C   9)                  1.0822         0.370624   
     31. B(H  28,C  12)                  1.0916         0.358036   
     32. B(H  29,C  12)                  1.0898         0.360374   
     33. B(H  30,C  12)                  1.0916         0.357982   
     34. B(H  31,C  13)                  1.0905         0.359473   
     35. B(H  32,C  13)                  1.0910         0.358773   
     36. B(H  33,C  13)                  1.0906         0.359366   
     37. B(H  34,C  14)                  1.0904         0.359581   
     38. B(H  35,C  14)                  1.0906         0.359272   
     39. B(H  36,C  14)                  1.0905         0.359482   
     40. B(H  37,C  15)                  1.0836         0.368630   
     41. B(Li 38,N  19)                  1.9427         0.356504   
     42. B(Li 38,N  16)                  1.9727         0.319340   
     43. A(C   1,C   0,H  20)          122.2180         0.367918   
     44. A(H  20,C   0,H  21)          116.3148         0.293326   
     45. A(C   1,C   0,H  21)          121.3115         0.368995   
     46. A(C   0,C   1,H  22)          119.5520         0.368051   
     47. A(C   2,C   1,H  22)          116.6280         0.338024   
     48. A(C   0,C   1,C   2)          123.7536         0.430084   
     49. A(C   3,C   2,N  19)          121.3453         0.438850   
     50. A(C   1,C   2,C   3)          120.6078         0.409295   
     51. A(C   1,C   2,N  19)          118.0421         0.421471   
     52. A(C   2,C   3,C   4)          119.3194         0.436582   
     53. A(C   2,C   3,H  23)          119.7459         0.351733   
     54. A(C   4,C   3,H  23)          120.9190         0.359953   
     55. A(C   5,C   4,H  24)          119.7203         0.351508   
     56. A(C   3,C   4,H  24)          120.3745         0.359628   
     57. A(C   3,C   4,C   5)          119.9051         0.436702   
     58. A(C   4,C   5,C  18)          116.9221         0.427224   
     59. A(C   6,C   5,C  18)          119.5825         0.421473   
     60. A(C   4,C   5,C   6)          123.4919         0.420536   
     61. A(C   5,C   6,C   7)          120.7287         0.435311   
     62. A(C   7,C   6,H  25)          120.3978         0.363320   
     63. A(C   5,C   6,H  25)          118.8735         0.347150   
     64. A(C   8,C   7,H  26)          118.7394         0.346690   
     65. A(C   6,C   7,H  26)          120.2851         0.363305   
     66. A(C   6,C   7,C   8)          120.9744         0.434712   
     67. A(C   9,C   8,C  17)          117.6402         0.428291   
     68. A(C   7,C   8,C  17)          119.5693         0.422033   
     69. A(C   7,C   8,C   9)          122.7897         0.419875   
     70. A(C  10,C   9,H  27)          120.7572         0.358502   
     71. A(C   8,C   9,H  27)          118.2178         0.351548   
     72. A(C   8,C   9,C  10)          121.0248         0.435021   
     73. A(C   9,C  10,C  11)          124.1165         0.403723   
     74. A(C  11,C  10,C  15)          119.7350         0.394643   
     75. A(C   9,C  10,C  15)          116.1478         0.433937   
     76. A(C  13,C  11,C  14)          109.8216         0.361055   
     77. A(C  10,C  11,C  13)          108.8300         0.364369   
     78. A(C  10,C  11,C  12)          111.5907         0.366192   
     79. A(C  12,C  11,C  14)          108.5117         0.362857   
     80. A(C  10,C  11,C  14)          109.3762         0.364516   
     81. A(C  12,C  11,C  13)          108.6947         0.362710   
     82. A(H  29,C  12,H  30)          106.9861         0.290605   
     83. A(H  28,C  12,H  30)          108.4123         0.290308   
     84. A(C  11,C  12,H  30)          112.2679         0.324506   
     85. A(H  28,C  12,H  29)          106.8714         0.290612   
     86. A(C  11,C  12,H  29)          109.6185         0.324861   
     87. A(C  11,C  12,H  28)          112.4023         0.324514   
     88. A(H  32,C  13,H  33)          107.8928         0.290578   
     89. A(C  11,C  13,H  33)          111.4414         0.323161   
     90. A(H  31,C  13,H  32)          107.0288         0.290591   
     91. A(C  11,C  13,H  32)          112.4334         0.323074   
     92. A(C  11,C  13,H  31)          110.0549         0.323177   
     93. A(H  31,C  13,H  33)          107.7778         0.290667   
     94. A(H  34,C  14,H  35)          106.8509         0.290668   
     95. A(C  11,C  14,H  35)          112.6107         0.323273   
     96. A(C  11,C  14,H  34)          109.9396         0.323318   
     97. A(H  35,C  14,H  36)          107.9703         0.290656   
     98. A(H  34,C  14,H  36)          107.7387         0.290695   
     99. A(C  11,C  14,H  36)          111.5037         0.323304   
    100. A(C  10,C  15,N  16)          124.6054         0.439736   
    101. A(N  16,C  15,H  37)          115.8106         0.362698   
    102. A(C  10,C  15,H  37)          119.5840         0.350407   
    103. A(C  15,N  16,C  17)          118.6783         0.445210   
    104. A(C  17,N  16,Li 38)          107.1230         0.416410   
    105. A(C  15,N  16,Li 38)          134.1441         0.426536   
    106. A(N  16,C  17,C  18)          118.5630         0.422057   
    107. A(C   8,C  17,C  18)          119.5347         0.420114   
    108. A(C   8,C  17,N  16)          121.9012         0.432508   
    109. A(C   5,C  18,N  19)          122.5443         0.433118   
    110. A(C   5,C  18,C  17)          119.5908         0.418986   
    111. A(C  17,C  18,N  19)          117.8620         0.423789   
    112. A(C  18,N  19,Li 38)          108.6034         0.426416   
    113. A(C   2,N  19,Li 38)          131.2118         0.433126   
    114. A(C   2,N  19,C  18)          119.9156         0.445070   
    115. A(N  16,Li 38,N  19)           87.6102         0.407073   
    116. D(H  22,C   1,C   0,H  21)      2.2486         0.043372   
    117. D(H  22,C   1,C   0,H  20)   -173.0476         0.043372   
    118. D(C   2,C   1,C   0,H  21)    179.1832         0.043372   
    119. D(C   2,C   1,C   0,H  20)      3.8870         0.043372   
    120. D(N  19,C   2,C   1,C   0)     37.5517         0.015038   
    121. D(N  19,C   2,C   1,H  22)   -145.4312         0.015038   
    122. D(C   3,C   2,C   1,H  22)     35.3534         0.015038   
    123. D(C   3,C   2,C   1,C   0)   -141.6637         0.015038   
    124. D(C   4,C   3,C   2,N  19)     -2.4771         0.023834   
    125. D(C   4,C   3,C   2,C   1)    176.7120         0.023834   
    126. D(H  23,C   3,C   2,N  19)    178.9493         0.023834   
    127. D(H  23,C   3,C   2,C   1)     -1.8616         0.023834   
    128. D(C   5,C   4,C   3,H  23)    179.8435         0.031840   
    129. D(H  24,C   4,C   3,C   2)   -178.7669         0.031840   
    130. D(H  24,C   4,C   3,H  23)     -0.2105         0.031840   
    131. D(C   5,C   4,C   3,C   2)      1.2871         0.031840   
    132. D(C  18,C   5,C   4,H  24)   -179.3421         0.023911   
    133. D(C  18,C   5,C   4,C   3)      0.6044         0.023911   
    134. D(C   6,C   5,C   4,C   3)    179.9158         0.023911   
    135. D(C   6,C   5,C   4,H  24)     -0.0306         0.023911   
    136. D(C   7,C   6,C   5,C  18)      0.4733         0.020420   
    137. D(H  25,C   6,C   5,C  18)   -179.4975         0.020420   
    138. D(C   7,C   6,C   5,C   4)   -178.8207         0.020420   
    139. D(H  25,C   6,C   5,C   4)      1.2084         0.020420   
    140. D(H  26,C   7,C   6,H  25)      0.1444         0.036106   
    141. D(C   8,C   7,C   6,H  25)   -179.4661         0.036106   
    142. D(H  26,C   7,C   6,C   5)   -179.8260         0.036106   
    143. D(C   8,C   7,C   6,C   5)      0.5635         0.036106   
    144. D(C   9,C   8,C   7,H  26)     -0.5039         0.020100   
    145. D(C   9,C   8,C   7,C   6)    179.1125         0.020100   
    146. D(C  17,C   8,C   7,C   6)     -0.5482         0.020100   
    147. D(C  17,C   8,C   7,H  26)    179.8354         0.020100   
    148. D(H  27,C   9,C   8,C  17)   -179.9356         0.023853   
    149. D(H  27,C   9,C   8,C   7)      0.3976         0.023853   
    150. D(C  10,C   9,C   8,C  17)      0.2211         0.023853   
    151. D(C  10,C   9,C   8,C   7)   -179.4457         0.023853   
    152. D(C  15,C  10,C   9,H  27)   -179.7126         0.030483   
    153. D(C  15,C  10,C   9,C   8)      0.1268         0.030483   
    154. D(C  11,C  10,C   9,H  27)      0.5849         0.030483   
    155. D(C  11,C  10,C   9,C   8)   -179.5757         0.030483   
    156. D(C  14,C  11,C  10,C  15)     58.2416         0.011169   
    157. D(C  14,C  11,C  10,C   9)   -122.0659         0.011169   
    158. D(C  13,C  11,C  10,C  15)    -61.7391         0.011169   
    159. D(C  13,C  11,C  10,C   9)    117.9534         0.011169   
    160. D(C  12,C  11,C  10,C  15)    178.3167         0.011169   
    161. D(C  12,C  11,C  10,C   9)     -1.9908         0.011169   
    162. D(H  30,C  12,C  11,C  13)    179.0321         0.011343   
    163. D(H  30,C  12,C  11,C  10)    -60.9440         0.011343   
    164. D(H  29,C  12,C  11,C  14)    -59.1186         0.011343   
    165. D(H  29,C  12,C  11,C  13)     60.2752         0.011343   
    166. D(H  29,C  12,C  11,C  10)   -179.7009         0.011343   
    167. D(H  28,C  12,C  11,C  14)   -177.8168         0.011343   
    168. D(H  28,C  12,C  11,C  13)    -58.4229         0.011343   
    169. D(H  30,C  12,C  11,C  14)     59.6382         0.011343   
    170. D(H  28,C  12,C  11,C  10)     61.6009         0.011343   
    171. D(H  33,C  13,C  11,C  10)    -59.6552         0.010738   
    172. D(H  32,C  13,C  11,C  14)    -58.0778         0.010738   
    173. D(H  32,C  13,C  11,C  12)   -176.6497         0.010738   
    174. D(H  32,C  13,C  11,C  10)     61.6264         0.010738   
    175. D(H  31,C  13,C  11,C  14)     61.1309         0.010738   
    176. D(H  31,C  13,C  11,C  12)    -57.4409         0.010738   
    177. D(H  33,C  13,C  11,C  12)     62.0687         0.010738   
    178. D(H  31,C  13,C  11,C  10)   -179.1648         0.010738   
    179. D(H  33,C  13,C  11,C  14)   -179.3594         0.010738   
    180. D(H  36,C  14,C  11,C  13)    178.7728         0.010786   
    181. D(H  36,C  14,C  11,C  12)    -62.5425         0.010786   
    182. D(H  36,C  14,C  11,C  10)     59.4025         0.010786   
    183. D(H  35,C  14,C  11,C  13)     57.2189         0.010786   
    184. D(H  35,C  14,C  11,C  12)    175.9036         0.010786   
    185. D(H  35,C  14,C  11,C  10)    -62.1515         0.010786   
    186. D(H  34,C  14,C  11,C  13)    -61.8023         0.010786   
    187. D(H  34,C  14,C  11,C  12)     56.8824         0.010786   
    188. D(H  34,C  14,C  11,C  10)    178.8274         0.010786   
    189. D(H  37,C  15,C  10,C  11)     -0.5096         0.023170   
    190. D(H  37,C  15,C  10,C   9)    179.7740         0.023170   
    191. D(N  16,C  15,C  10,C  11)    179.5191         0.023170   
    192. D(N  16,C  15,C  10,C   9)     -0.1973         0.023170   
    193. D(Li 38,N  16,C  15,H  37)     -3.1595         0.045552   
    194. D(Li 38,N  16,C  15,C  10)    176.8128         0.045552   
    195. D(C  17,N  16,C  15,H  37)    179.9211         0.045552   
    196. D(C  17,N  16,C  15,C  10)     -0.1066         0.045552   
    197. D(C  18,C  17,N  16,Li 38)      2.4297         0.033899   
    198. D(C  18,C  17,N  16,C  15)   -179.8829         0.033899   
    199. D(C   8,C  17,N  16,Li 38)   -177.1987         0.033899   
    200. D(C   8,C  17,N  16,C  15)      0.4886         0.033899   
    201. D(C  18,C  17,C   8,C   9)    179.8313         0.025340   
    202. D(C  18,C  17,C   8,C   7)     -0.4907         0.025340   
    203. D(N  16,C  17,C   8,C   9)     -0.5437         0.025340   
    204. D(N  16,C  17,C   8,C   7)    179.1343         0.025340   
    205. D(N  19,C  18,C  17,N  16)      1.2587         0.019072   
    206. D(N  19,C  18,C  17,C   8)   -179.1038         0.019072   
    207. D(C   5,C  18,C  17,N  16)   -178.1309         0.019072   
    208. D(C   5,C  18,C  17,C   8)      1.5066         0.019072   
    209. D(N  19,C  18,C   5,C   6)    179.1417         0.024546   
    210. D(N  19,C  18,C   5,C   4)     -1.5186         0.024546   
    211. D(C  17,C  18,C   5,C   6)     -1.4985         0.024546   
    212. D(C  17,C  18,C   5,C   4)    177.8412         0.024546   
    213. D(Li 38,N  19,C  18,C  17)     -4.2661         0.035632   
    214. D(Li 38,N  19,C  18,C   5)    175.1043         0.035632   
    215. D(C   2,N  19,C  18,C  17)   -178.9549         0.035632   
    216. D(C   2,N  19,C  18,C   5)      0.4154         0.035632   
    217. D(Li 38,N  19,C   2,C   3)   -171.6888         0.043130   
    218. D(Li 38,N  19,C   2,C   1)      9.1019         0.043130   
    219. D(C  18,N  19,C   2,C   3)      1.6143         0.043130   
    220. D(C  18,N  19,C   2,C   1)   -177.5949         0.043130   
    221. D(N  16,Li 38,N  19,C  18)      4.4273         0.002552   
    222. D(N  16,Li 38,N  19,C   2)    178.3050         0.002552   
    223. D(N  19,Li 38,N  16,C  17)     -3.7531         0.002342   
    224. D(N  19,Li 38,N  16,C  15)    179.0747         0.002342   
    -----------------------------------------------------------------

Number of atoms                         .... 39
Number of degrees of freedom            .... 224

         *************************************************************
         *                GEOMETRY OPTIMIZATION CYCLE   1            *
         *************************************************************
---------------------------------
CARTESIAN COORDINATES (ANGSTROEM)
---------------------------------
  C      4.086772    2.931262    0.503994
  C      4.403352    1.828154   -0.169412
  C      3.603370    0.598144   -0.141799
  C      4.227652   -0.661889   -0.130019
  C      3.458198   -1.790507   -0.035795
  C      2.057736   -1.681330    0.020525
  C      1.183887   -2.804634    0.117346
  C     -0.158710   -2.636080    0.144033
  C     -0.737780   -1.332606    0.064160
  C     -2.126950   -1.114794    0.070181
  C     -2.645415    0.155228   -0.019751
  C     -4.132223    0.471842   -0.010433
  C     -4.976994   -0.798669    0.061897
  C     -4.445953    1.341862    1.215134
  C     -4.499656    1.228897   -1.293891
  C     -1.707808    1.203500   -0.119311
  N     -0.403278    1.040223   -0.126973
  C      0.094046   -0.212677   -0.031608
  C      1.518796   -0.387883   -0.037648
  N      2.287301    0.713551   -0.112510
  H      3.236032    2.974658    1.175922
  H      4.711966    3.811454    0.465427
  H      5.324634    1.796015   -0.740456
  H      5.306113   -0.726660   -0.171877
  H      3.922009   -2.768309   -0.005196
  H      1.612328   -3.796992    0.169792
  H     -0.814963   -3.493233    0.220464
  H     -2.779409   -1.974889    0.145022
  H     -4.792973   -1.369224    0.974101
  H     -6.034519   -0.535441    0.061402
  H     -4.811303   -1.454896   -0.794558
  H     -5.511970    1.568930    1.249527
  H     -3.916605    2.295635    1.195147
  H     -4.183875    0.832587    2.143178
  H     -5.568833    1.442578   -1.306420
  H     -3.984824    2.186701   -1.377716
  H     -4.267466    0.643113   -2.183871
  H     -2.055678    2.226842   -0.196801
  Li     1.133004    2.261111   -0.328994

----------------------------
CARTESIAN COORDINATES (A.U.)
----------------------------
  NO LB      ZA    FRAG     MASS         X           Y           Z
   0 C     6.0000    0    12.011    7.722880    5.539282    0.952411
   1 C     6.0000    0    12.011    8.321129    3.454710   -0.320142
   2 C     6.0000    0    12.011    6.809382    1.130328   -0.267961
   3 C     6.0000    0    12.011    7.989104   -1.250789   -0.245700
   4 C     6.0000    0    12.011    6.535047   -3.383568   -0.067643
   5 C     6.0000    0    12.011    3.888557   -3.177253    0.038787
   6 C     6.0000    0    12.011    2.237222   -5.299990    0.221752
   7 C     6.0000    0    12.011   -0.299918   -4.981469    0.272183
   8 C     6.0000    0    12.011   -1.394202   -2.518260    0.121245
   9 C     6.0000    0    12.011   -4.019353   -2.106655    0.132623
  10 C     6.0000    0    12.011   -4.999110    0.293338   -0.037324
  11 C     6.0000    0    12.011   -7.808770    0.891652   -0.019716
  12 C     6.0000    0    12.011   -9.405156   -1.509266    0.116968
  13 C     6.0000    0    12.011   -8.401634    2.535752    2.296270
  14 C     6.0000    0    12.011   -8.503118    2.322279   -2.445100
  15 C     6.0000    0    12.011   -3.227289    2.274285   -0.225465
  16 N     7.0000    0    14.007   -0.762085    1.965737   -0.239944
  17 C     6.0000    0    12.011    0.177721   -0.401901   -0.059730
  18 C     6.0000    0    12.011    2.870108   -0.732993   -0.071144
  19 N     7.0000    0    14.007    4.322372    1.348416   -0.212613
  20 H     1.0000    0     1.008    6.115214    5.621289    2.222171
  21 H     1.0000    0     1.008    8.904325    7.202604    0.879530
  22 H     1.0000    0     1.008   10.062100    3.393976   -1.399259
  23 H     1.0000    0     1.008   10.027100   -1.373188   -0.324800
  24 H     1.0000    0     1.008    7.411523   -5.231346   -0.009819
  25 H     1.0000    0     1.008    3.046858   -7.175275    0.320860
  26 H     1.0000    0     1.008   -1.540057   -6.601254    0.416617
  27 H     1.0000    0     1.008   -5.252322   -3.731999    0.274052
  28 H     1.0000    0     1.008   -9.057406   -2.587458    1.840784
  29 H     1.0000    0     1.008  -11.403588   -1.011837    0.116033
  30 H     1.0000    0     1.008   -9.092045   -2.749355   -1.501497
  31 H     1.0000    0     1.008  -10.416114    2.964848    2.361264
  32 H     1.0000    0     1.008   -7.401311    4.338121    2.258501
  33 H     1.0000    0     1.008   -7.906378    1.573361    4.050019
  34 H     1.0000    0     1.008  -10.523569    2.726077   -2.468776
  35 H     1.0000    0     1.008   -7.530226    4.132266   -2.603506
  36 H     1.0000    0     1.008   -8.064342    1.215307   -4.126918
  37 H     1.0000    0     1.008   -3.884668    4.208122   -0.371900
  38 Li    3.0000    0     6.941    2.141067    4.272881   -0.621709

--------------------------------
INTERNAL COORDINATES (ANGSTROEM)
--------------------------------
 C      0   0   0     0.000000000000     0.00000000     0.00000000
 C      1   0   0     1.330618576791     0.00000000     0.00000000
 C      2   1   0     1.467534762175   123.75362403     0.00000000
 C      3   2   1     1.406253869333   120.60780219   218.33634110
 C      4   3   2     1.369202764464   119.31944419   176.71204488
 C      5   4   3     1.405839739506   119.90514184     1.28705036
 C      6   5   4     1.426463549222   123.49189375   179.91583711
 C      7   6   5     1.353399184016   120.72873258   181.17926848
 C      8   7   6     1.428546894472   120.97442646     0.56351052
 C      9   8   7     1.406154902095   122.78972621   179.11247396
 C     10   9   8     1.374718007932   121.02482198   180.55425224
 C     11  10   9     1.520174094959   124.11646690   180.42425213
 C     12  11  10     1.527438336713   111.59070384   358.00916834
 C     12  11  10     1.535374802707   108.82999395   117.95339318
 C     12  11  10     1.534732458860   109.37618483   237.93408091
 C     11  10   9     1.409926688177   116.14783568     0.12676596
 N     16  11  10     1.314730621030   124.60538921   359.80270684
 C     17  16  11     1.351363775673   118.67830980   359.89339989
 C      6   5   4     1.402442713033   116.92211816     0.60437136
 N      3   2   1     1.321443995760   118.04212785    37.55167717
 H      1   2   3     1.084955758361   122.21804517     3.88698619
 H      1   2   3     1.080320743108   121.31145833   179.18322951
 H      2   1   3     1.084382169155   119.55198817   183.06538946
 H      4   3   2     1.081214827463   119.74590699   358.13844122
 H      5   4   3     1.082660470196   120.37453530   181.23313730
 H      7   6   5     1.082167581089   118.87350853     1.20843608
 H      8   7   6     1.082229625902   120.28507470   180.17402205
 H     10   9   8     1.082158644094   118.21776442     0.39760804
 H     13  12  11     1.091564415910   112.40233763    61.60091534
 H     13  12  11     1.089792801699   109.61851869   180.29908937
 H     13  12  11     1.091605491941   112.26788526   299.05595557
 H     14  12  11     1.090474666997   110.05485934   180.83515368
 H     14  12  11     1.091004913280   112.43338494    61.62638633
 H     14  12  11     1.090555624278   111.44135237   300.34480587
 H     15  12  11     1.090392591194   109.93961255   178.82735277
 H     15  12  11     1.090626939547   112.61069711   297.84851669
 H     15  12  11     1.090467556214   111.50365522    59.40245237
 H     16  11  10     1.083626820434   119.58399831   179.77398973
 Li    20   3   2     1.942732313023   131.21179778     9.10193478

---------------------------
INTERNAL COORDINATES (A.U.)
---------------------------
 C      0   0   0     0.000000000000     0.00000000     0.00000000
 C      1   0   0     2.514504698842     0.00000000     0.00000000
 C      2   1   0     2.773238792521   123.75362403     0.00000000
 C      3   2   1     2.657434687806   120.60780219   218.33634110
 C      4   3   2     2.587418246645   119.31944419   176.71204488
 C      5   4   3     2.656652095849   119.90514184     1.28705036
 C      6   5   4     2.695625448050   123.49189375   179.91583711
 C      7   6   5     2.557553807662   120.72873258   181.17926848
 C      8   7   6     2.699562400015   120.97442646     0.56351052
 C      9   8   7     2.657247666830   122.78972621   179.11247396
 C     10   9   8     2.597840546362   121.02482198   180.55425224
 C     11  10   9     2.872712715354   124.11646690   180.42425213
 C     12  11  10     2.886440142841   111.59070384   358.00916834
 C     12  11  10     2.901437890040   108.82999395   117.95339318
 C     12  11  10     2.900224036085   109.37618483   237.93408091
 C     11  10   9     2.664375309561   116.14783568     0.12676596
 N     16  11  10     2.484480813626   124.60538921   359.80270684
 C     17  16  11     2.553707443324   118.67830980   359.89339989
 C      6   5   4     2.650232646145   116.92211816     0.60437136
 N      3   2   1     2.497167253302   118.04212785    37.55167717
 H      1   2   3     2.050269250723   122.21804517     3.88698619
 H      1   2   3     2.041510341268   121.31145833   179.18322951
 H      2   1   3     2.049185324210   119.55198817   183.06538946
 H      4   3   2     2.043199915840   119.74590699   358.13844122
 H      5   4   3     2.045931784694   120.37453530   181.23313730
 H      7   6   5     2.045000359267   118.87350853     1.20843608
 H      8   7   6     2.045117606970   120.28507470   180.17402205
 H     10   9   8     2.044983470793   118.21776442     0.39760804
 H     13  12  11     2.062757803605   112.40233763    61.60091534
 H     13  12  11     2.059409937929   109.61851869   180.29908937
 H     13  12  11     2.062835426052   112.26788526   299.05595557
 H     14  12  11     2.060698476603   110.05485934   180.83515368
 H     14  12  11     2.061700496862   112.43338494    61.62638633
 H     14  12  11     2.060851463693   111.44135237   300.34480587
 H     15  12  11     2.060543375814   109.93961255   178.82735277
 H     15  12  11     2.060986230020   112.61069711   297.84851669
 H     15  12  11     2.060685039171   111.50365522    59.40245237
 H     16  11  10     2.047757921992   119.58399831   179.77398973
 Li    20   3   2     3.671232023133   131.21179778     9.10193478

---------------------
BASIS SET INFORMATION
---------------------
There are 4 groups of distinct atoms

 Group   1 Type C   : 7s4p1d contracted to 3s2p1d pattern {511/31/1}
 Group   2 Type N   : 7s4p1d contracted to 3s2p1d pattern {511/31/1}
 Group   3 Type H   : 4s1p contracted to 2s1p pattern {31/1}
 Group   4 Type Li  : 7s3p contracted to 3s2p pattern {511/21}

Atom   0C    basis set group =>   1
Atom   1C    basis set group =>   1
Atom   2C    basis set group =>   1
Atom   3C    basis set group =>   1
Atom   4C    basis set group =>   1
Atom   5C    basis set group =>   1
Atom   6C    basis set group =>   1
Atom   7C    basis set group =>   1
Atom   8C    basis set group =>   1
Atom   9C    basis set group =>   1
Atom  10C    basis set group =>   1
Atom  11C    basis set group =>   1
Atom  12C    basis set group =>   1
Atom  13C    basis set group =>   1
Atom  14C    basis set group =>   1
Atom  15C    basis set group =>   1
Atom  16N    basis set group =>   2
Atom  17C    basis set group =>   1
Atom  18C    basis set group =>   1
Atom  19N    basis set group =>   2
Atom  20H    basis set group =>   3
Atom  21H    basis set group =>   3
Atom  22H    basis set group =>   3
Atom  23H    basis set group =>   3
Atom  24H    basis set group =>   3
Atom  25H    basis set group =>   3
Atom  26H    basis set group =>   3
Atom  27H    basis set group =>   3
Atom  28H    basis set group =>   3
Atom  29H    basis set group =>   3
Atom  30H    basis set group =>   3
Atom  31H    basis set group =>   3
Atom  32H    basis set group =>   3
Atom  33H    basis set group =>   3
Atom  34H    basis set group =>   3
Atom  35H    basis set group =>   3
Atom  36H    basis set group =>   3
Atom  37H    basis set group =>   3
Atom  38Li   basis set group =>   4
---------------------------------
AUXILIARY/J BASIS SET INFORMATION
---------------------------------
There are 4 groups of distinct atoms

 Group   1 Type C   : 12s5p4d2f1g contracted to 6s4p3d1f1g pattern {711111/2111/211/2/1}
 Group   2 Type N   : 12s5p4d2f1g contracted to 6s4p3d1f1g pattern {711111/2111/211/2/1}
 Group   3 Type H   : 5s2p1d contracted to 3s1p1d pattern {311/2/1}
 Group   4 Type Li  : 12s5p4d2f1g contracted to 6s4p3d1f1g pattern {711111/2111/211/2/1}

Atom   0C    basis set group =>   1
Atom   1C    basis set group =>   1
Atom   2C    basis set group =>   1
Atom   3C    basis set group =>   1
Atom   4C    basis set group =>   1
Atom   5C    basis set group =>   1
Atom   6C    basis set group =>   1
Atom   7C    basis set group =>   1
Atom   8C    basis set group =>   1
Atom   9C    basis set group =>   1
Atom  10C    basis set group =>   1
Atom  11C    basis set group =>   1
Atom  12C    basis set group =>   1
Atom  13C    basis set group =>   1
Atom  14C    basis set group =>   1
Atom  15C    basis set group =>   1
Atom  16N    basis set group =>   2
Atom  17C    basis set group =>   1
Atom  18C    basis set group =>   1
Atom  19N    basis set group =>   2
Atom  20H    basis set group =>   3
Atom  21H    basis set group =>   3
Atom  22H    basis set group =>   3
Atom  23H    basis set group =>   3
Atom  24H    basis set group =>   3
Atom  25H    basis set group =>   3
Atom  26H    basis set group =>   3
Atom  27H    basis set group =>   3
Atom  28H    basis set group =>   3
Atom  29H    basis set group =>   3
Atom  30H    basis set group =>   3
Atom  31H    basis set group =>   3
Atom  32H    basis set group =>   3
Atom  33H    basis set group =>   3
Atom  34H    basis set group =>   3
Atom  35H    basis set group =>   3
Atom  36H    basis set group =>   3
Atom  37H    basis set group =>   3
Atom  38Li   basis set group =>   4
---------------------------------
AUXILIARY/C BASIS SET INFORMATION
---------------------------------
There are 4 groups of distinct atoms

 Group   1 Type C   : 8s6p5d3f contracted to 6s5p4d1f pattern {311111/21111/2111/3}
 Group   2 Type N   : 8s6p5d3f contracted to 6s5p4d1f pattern {311111/21111/2111/3}
 Group   3 Type H   : 4s3p2d contracted to 3s2p1d pattern {211/21/2}
 Group   4 Type Li  : 9s5p3d contracted to 5s5p1d pattern {51111/11111/3}

Atom   0C    basis set group =>   1
Atom   1C    basis set group =>   1
Atom   2C    basis set group =>   1
Atom   3C    basis set group =>   1
Atom   4C    basis set group =>   1
Atom   5C    basis set group =>   1
Atom   6C    basis set group =>   1
Atom   7C    basis set group =>   1
Atom   8C    basis set group =>   1
Atom   9C    basis set group =>   1
Atom  10C    basis set group =>   1
Atom  11C    basis set group =>   1
Atom  12C    basis set group =>   1
Atom  13C    basis set group =>   1
Atom  14C    basis set group =>   1
Atom  15C    basis set group =>   1
Atom  16N    basis set group =>   2
Atom  17C    basis set group =>   1
Atom  18C    basis set group =>   1
Atom  19N    basis set group =>   2
Atom  20H    basis set group =>   3
Atom  21H    basis set group =>   3
Atom  22H    basis set group =>   3
Atom  23H    basis set group =>   3
Atom  24H    basis set group =>   3
Atom  25H    basis set group =>   3
Atom  26H    basis set group =>   3
Atom  27H    basis set group =>   3
Atom  28H    basis set group =>   3
Atom  29H    basis set group =>   3
Atom  30H    basis set group =>   3
Atom  31H    basis set group =>   3
Atom  32H    basis set group =>   3
Atom  33H    basis set group =>   3
Atom  34H    basis set group =>   3
Atom  35H    basis set group =>   3
Atom  36H    basis set group =>   3
Atom  37H    basis set group =>   3
Atom  38Li   basis set group =>   4
----------------------------------
AUXILIARY/JK BASIS SET INFORMATION
----------------------------------
There are 4 groups of distinct atoms

 Group   1 Type C   : 14s10p6d2f1g contracted to 10s8p5d1f1g pattern {5111111111/31111111/21111/2/1}
 Group   2 Type N   : 14s10p6d2f1g contracted to 10s8p4d2f1g pattern {5111111111/31111111/3111/11/1}
 Group   3 Type H   : 4s2p2d contracted to 2s2p2d pattern {31/11/11}
 Group   4 Type Li  : 10s7p4d2f contracted to 7s5p3d2f pattern {4111111/31111/211/11}

Atom   0C    basis set group =>   1
Atom   1C    basis set group =>   1
Atom   2C    basis set group =>   1
Atom   3C    basis set group =>   1
Atom   4C    basis set group =>   1
Atom   5C    basis set group =>   1
Atom   6C    basis set group =>   1
Atom   7C    basis set group =>   1
Atom   8C    basis set group =>   1
Atom   9C    basis set group =>   1
Atom  10C    basis set group =>   1
Atom  11C    basis set group =>   1
Atom  12C    basis set group =>   1
Atom  13C    basis set group =>   1
Atom  14C    basis set group =>   1
Atom  15C    basis set group =>   1
Atom  16N    basis set group =>   2
Atom  17C    basis set group =>   1
Atom  18C    basis set group =>   1
Atom  19N    basis set group =>   2
Atom  20H    basis set group =>   3
Atom  21H    basis set group =>   3
Atom  22H    basis set group =>   3
Atom  23H    basis set group =>   3
Atom  24H    basis set group =>   3
Atom  25H    basis set group =>   3
Atom  26H    basis set group =>   3
Atom  27H    basis set group =>   3
Atom  28H    basis set group =>   3
Atom  29H    basis set group =>   3
Atom  30H    basis set group =>   3
Atom  31H    basis set group =>   3
Atom  32H    basis set group =>   3
Atom  33H    basis set group =>   3
Atom  34H    basis set group =>   3
Atom  35H    basis set group =>   3
Atom  36H    basis set group =>   3
Atom  37H    basis set group =>   3
Atom  38Li   basis set group =>   4


           ************************************************************
           *        Program running with 32 parallel MPI-processes    *
           *              working on a common directory               *
           ************************************************************
------------------------------------------------------------------------------
                           ORCA GTO INTEGRAL CALCULATION
                           -- RI-GTO INTEGRALS CHOSEN --
------------------------------------------------------------------------------
------------------------------------------------------------------------------
                   ___                                                        
                  /   \      - P O W E R E D   B Y -                         
                 /     \                                                     
                 |  |  |   _    _      __       _____    __    __             
                 |  |  |  | |  | |    /  \     |  _  \  |  |  /  |          
                  \  \/   | |  | |   /    \    | | | |  |  | /  /          
                 / \  \   | |__| |  /  /\  \   | |_| |  |  |/  /          
                |  |  |   |  __  | /  /__\  \  |    /   |      \           
                |  |  |   | |  | | |   __   |  |    \   |  |\   \          
                \     /   | |  | | |  |  |  |  | |\  \  |  | \   \       
                 \___/    |_|  |_| |__|  |__|  |_| \__\ |__|  \__/        
                                                                              
                      - O R C A' S   B I G   F R I E N D -                    
                                      &                                       
                       - I N T E G R A L  F E E D E R -                       
                                                                              
 v1 FN, 2020, v2 2021                                                         
------------------------------------------------------------------------------


Reading SHARK input file orca.SHARKINP.tmp ... ok
----------------------
SHARK INTEGRAL PACKAGE
----------------------

Number of atoms                             ...     39
Number of basis functions                   ...    379
Number of shells                            ...    179
Maximum angular momentum                    ...      2
Integral batch strategy                     ... SHARK/LIBINT Hybrid
RI-J (if used) integral strategy            ... SPLIT-RIJ (Revised 2003 algorithm where possible)
Printlevel                                  ...      1
Contraction scheme used                     ... SEGMENTED contraction
Coulomb Range Separation                    ... NOT USED
Exchange Range Separation                   ... Long Range
   Mu parameter                             ...  0.250000
   Scaling (regular/separated)              ...  0.195728  0.804272
Finite Nucleus Model                        ... NOT USED
Auxiliary Coulomb fitting basis             ... AVAILABLE
   # of basis functions in Aux-J            ...   1227
   # of shells in Aux-J                     ...    405
   Maximum angular momentum in Aux-J        ...      4
Auxiliary J/K fitting basis                 ... AVAILABLE
   # of basis functions in Aux-JK           ...   1879
   # of shells in Aux-JK                    ...    625
   Maximum angular momentum in Aux-JK       ...      4
Auxiliary Correlation fitting basis         ... AVAILABLE
   # of basis functions in Aux-C            ...   1237
   # of shells in Aux-C                     ...    439
   Maximum angular momentum in Aux-C        ...      3
Auxiliary 'external' fitting basis          ... NOT available
Integral threshold                          ...     2.500000e-11
Primitive cut-off                           ...     2.500000e-12
Primitive pair pre-selection threshold      ...     2.500000e-12

Calculating pre-screening integrals         ... done (  0.0 sec) Dimension = 179
Organizing shell pair data                  ... done (  0.1 sec)
Shell pair information
Total number of shell pairs                 ...     16110
Shell pairs after pre-screening             ...     11826
Total number of primitive shell pairs       ...     58295
Primitive shell pairs kept                  ...     28018
          la=0 lb=0:   3711 shell pairs
          la=1 lb=0:   4427 shell pairs
          la=1 lb=1:   1374 shell pairs
          la=2 lb=0:   1353 shell pairs
          la=2 lb=1:    829 shell pairs
          la=2 lb=2:    132 shell pairs

Calculating one electron integrals          ... done (  0.0 sec)
Calculating RI/J V-Matrix + Cholesky decomp.... done (  0.1 sec)
Calculating RI/JK V-Matrix + Cholesky decomp... done (  0.1 sec)
Calculating RI/C V-Matrix + Cholesky decomp.... done (  0.1 sec)
Calculating Nuclear repulsion               ... done (  0.0 sec) ENN=   1492.797117877555 Eh

SHARK setup successfully completed in   0.6 seconds

Maximum memory used throughout the entire GTOINT-calculation: 21.2 MB


           ************************************************************
           *        Program running with 32 parallel MPI-processes    *
           *              working on a common directory               *
           ************************************************************
-------------------------------------------------------------------------------
                                 ORCA SCF
-------------------------------------------------------------------------------

------------
SCF SETTINGS
------------
Hamiltonian:
 Density Functional     Method          .... DFT(GTOs)
 Exchange Functional    Exchange        .... WB97X-D3
 Correlation Functional Correlation     .... WB97X-D3
 Gradients option       PostSCFGGA      .... off
 Hybrid DFT is turned on
   Fraction HF Exchange ScalHFX         ....  0.195728
   Scaling of DF-GGA-X  ScalDFX         ....  0.000000
   Scaling of DF-GGA-C  ScalDFC         ....  1.000000
   Scaling of DF-LDA-C  ScalLDAC        ....  1.000000
   Perturbative correction              ....  0.000000
   Density functional embedding theory  .... OFF
 Long-range corrected/Screened/Range-Separated Hybrid DFT is turned on
   Amount of maximum screened exact exchange              ....  0.804272
   Range separation parameter mu (erf(mu*r12)/r12)        ....  0.250000
 RI-approximation to the Coulomb term is turned on
   Number of AuxJ basis functions       .... 1227
   RIJ-COSX (HFX calculated with COS-X)).... on


General Settings:
 Integral files         IntName         .... orca
 Hartree-Fock type      HFTyp           .... RHF
 Total Charge           Charge          ....    1
 Multiplicity           Mult            ....    1
 Number of Electrons    NEL             ....  142
 Basis Dimension        Dim             ....  379
 Nuclear Repulsion      ENuc            ....   1492.7971178776 Eh

Convergence Acceleration:
 DIIS                   CNVDIIS         .... on
   Start iteration      DIISMaxIt       ....    12
   Startup error        DIISStart       ....  0.200000
   # of expansion vecs  DIISMaxEq       ....     5
   Bias factor          DIISBfac        ....   1.050
   Max. coefficient     DIISMaxC        ....  10.000
 Trust-Rad. Augm. Hess. CNVTRAH         .... auto
   Auto Start mean grad. ratio tolernc. ....  1.125000
   Auto Start start iteration           ....    20
   Auto Start num. interpolation iter.  ....    10
   Max. Number of Micro iterations      ....    16
   Max. Number of Macro iterations      .... Maxiter - #DIIS iter
   Number of Davidson start vectors     ....     2
   Converg. threshold I  (grad. norm)   ....   1.000e-05
   Converg. threshold II (energy diff.) ....   1.000e-08
   Grad. Scal. Fac. for Micro threshold ....   0.100
   Minimum threshold for Micro iter.    ....   0.010
   NR start threshold (gradient norm)   ....   0.001
   Initial trust radius                 ....   0.400
   Minimum AH scaling param. (alpha)    ....   1.000
   Maximum AH scaling param. (alpha)    .... 1000.000
   Orbital update algorithm             .... Taylor
   White noise on init. David. guess    .... on
   Maximum white noise                  ....   0.010
   Quad. conv. algorithm                .... NR
 SOSCF                  CNVSOSCF        .... on
   Start iteration      SOSCFMaxIt      ....   150
   Startup grad/error   SOSCFStart      ....  0.003300
 Level Shifting         CNVShift        .... on
   Level shift para.    LevelShift      ....    0.2500
   Turn off err/grad.   ShiftErr        ....    0.0010
 Zerner damping         CNVZerner       .... off
 Static damping         CNVDamp         .... on
   Fraction old density DampFac         ....    0.7000
   Max. Damping (<1)    DampMax         ....    0.9800
   Min. Damping (>=0)   DampMin         ....    0.0000
   Turn off err/grad.   DampErr         ....    0.1000
 Fernandez-Rico         CNVRico         .... off

SCF Procedure:
 Maximum # iterations   MaxIter         ....   100
 SCF integral mode      SCFMode         .... Direct
   Integral package                     .... SHARK and LIBINT hybrid scheme
 Reset frequency        DirectResetFreq ....    20
 Integral Threshold     Thresh          ....  2.500e-11 Eh
 Primitive CutOff       TCut            ....  2.500e-12 Eh

Convergence Tolerance:
 Convergence Check Mode ConvCheckMode   .... Total+1el-Energy
 Convergence forced     ConvForced      .... 0
 Energy Change          TolE            ....  1.000e-08 Eh
 1-El. energy change                    ....  1.000e-05 Eh
 Orbital Gradient       TolG            ....  1.000e-05
 Orbital Rotation angle TolX            ....  1.000e-05
 DIIS Error             TolErr          ....  5.000e-07


Diagonalization of the overlap matrix:
Smallest eigenvalue                        ... 1.426e-04
Time for diagonalization                   ...    0.017 sec
Threshold for overlap eigenvalues          ... 1.000e-08
Number of eigenvalues below threshold      ... 0
Time for construction of square roots      ...    0.024 sec
Total time needed                          ...    0.115 sec

Time for model grid setup =    0.153 sec

------------------------------
INITIAL GUESS: MODEL POTENTIAL
------------------------------
Loading Hartree-Fock densities                     ... done
Calculating cut-offs                               ... done
Initializing the effective Hamiltonian             ... done
Setting up the integral package (SHARK)            ... done
Starting the Coulomb interaction                   ... done (   0.3 sec)
Reading the grid                                   ... done
Mapping shells                                     ... done
Starting the XC term evaluation                    ... done (   0.3 sec)
  promolecular density results
     # of electrons  =    142.981629264
     EX              =   -112.349538571
     EC              =     -4.757544141
     EX+EC           =   -117.107082712
Transforming the Hamiltonian                       ... done (   0.2 sec)
Diagonalizing the Hamiltonian                      ... done (   1.0 sec)
Back transforming the eigenvectors                 ... done (   0.0 sec)
Now organizing SCF variables                       ... done
                      ------------------
                      INITIAL GUESS DONE (   2.6 sec)
                      ------------------
-------------------
DFT GRID GENERATION
-------------------

General Integration Accuracy     IntAcc      ... 4.388
Radial Grid Type                 RadialGrid  ... OptM3 with GC (2021)
Angular Grid (max. ang.)         AngularGrid ... 4 (Lebedev-302)
Angular grid pruning method      GridPruning ... 4 (adaptive)
Weight generation scheme         WeightScheme... Becke
Basis function cutoff            BFCut       ... 1.0000e-11
Integration weight cutoff        WCut        ... 1.0000e-14
Angular grids for H and He will be reduced by one unit
Partially contracted basis set               ... off
Rotationally invariant grid construction     ... off

Total number of grid points                  ...   181650
Total number of batches                      ...     2862
Average number of points per batch           ...       63
Average number of grid points per atom       ...     4658
Time for grid setup =    4.524 sec

--------------------
COSX GRID GENERATION
--------------------

GRIDX 1
-------
General Integration Accuracy     IntAcc      ... 3.816
Radial Grid Type                 RadialGrid  ... OptM3 with GC (2021)
Angular Grid (max. ang.)         AngularGrid ... 1 (Lebedev-50)
Angular grid pruning method      GridPruning ... 4 (adaptive)
Weight generation scheme         WeightScheme... Becke
Basis function cutoff            BFCut       ... 1.0000e-11
Integration weight cutoff        WCut        ... 1.0000e-14
Angular grids for H and He will be reduced by one unit
Partially contracted basis set               ... on
Rotationally invariant grid construction     ... off

Total number of grid points                  ...    23176
Total number of batches                      ...      381
Average number of points per batch           ...       60
Average number of grid points per atom       ...      594
UseSFitting                                  ... on

GRIDX 2
-------
General Integration Accuracy     IntAcc      ... 4.020
Radial Grid Type                 RadialGrid  ... OptM3 with GC (2021)
Angular Grid (max. ang.)         AngularGrid ... 2 (Lebedev-110)
Angular grid pruning method      GridPruning ... 4 (adaptive)
Weight generation scheme         WeightScheme... Becke
Basis function cutoff            BFCut       ... 1.0000e-11
Integration weight cutoff        WCut        ... 1.0000e-14
Angular grids for H and He will be reduced by one unit
Partially contracted basis set               ... on
Rotationally invariant grid construction     ... off

Total number of grid points                  ...    49764
Total number of batches                      ...      796
Average number of points per batch           ...       62
Average number of grid points per atom       ...     1276
UseSFitting                                  ... on

GRIDX 3
-------
General Integration Accuracy     IntAcc      ... 4.338
Radial Grid Type                 RadialGrid  ... OptM3 with GC (2021)
Angular Grid (max. ang.)         AngularGrid ... 3 (Lebedev-194)
Angular grid pruning method      GridPruning ... 4 (adaptive)
Weight generation scheme         WeightScheme... Becke
Basis function cutoff            BFCut       ... 1.0000e-11
Integration weight cutoff        WCut        ... 1.0000e-14
Angular grids for H and He will be reduced by one unit
Partially contracted basis set               ... on
Rotationally invariant grid construction     ... off

Total number of grid points                  ...   108713
Total number of batches                      ...     1715
Average number of points per batch           ...       63
Average number of grid points per atom       ...     2788
UseSFitting                                  ... on

Time for X-Grid setup             =    4.658 sec


--------------------
CPCM SOLVATION MODEL
--------------------
CPCM parameters:
  Epsilon                                         ...      80.4000
  Refrac                                          ...       1.3300
  Rsolv                                           ...       1.3000
  Surface type                                    ... GAUSSIAN VDW
  Epsilon function type                           ...         CPCM
Radii:
 Radius for C  used is    3.8550 Bohr (=   2.0400 Ang.)
 Radius for N  used is    3.5149 Bohr (=   1.8600 Ang.)
 Radius for H  used is    2.4944 Bohr (=   1.3200 Ang.)
 Radius for Li used is    4.1272 Bohr (=   2.1840 Ang.)
Calculating surface                               ...        done! (  0.0s)
GEPOL surface points                              ...         1992
GEPOL Volume                                      ...    2356.5995
GEPOL Surface-area                                ...    1166.9014
Calculating surface distance matrix               ...        done! (  0.1s)
Performing Cholesky decomposition & store         ...        done! (  5.8s)
Overall time for CPCM initialization              ...                 5.9s
--------------
SCF ITERATIONS
--------------
ITER       Energy         Delta-E        Max-DP      RMS-DP      [F,P]     Damp
               ***  Starting incremental Fock matrix formation  ***
  0   -812.5816291711   0.000000000000 0.06893496  0.00140470  0.1741275 0.7000
  1   -812.7203511856  -0.138722014495 0.04633708  0.00103437  0.0981894 0.7000
                               ***Turning on DIIS***
  2   -812.7953491797  -0.074997994095 0.08184553  0.00220595  0.0490331 0.0000
  3   -812.9223122769  -0.126963097158 0.03439808  0.00053564  0.0371727 0.0000
  4   -812.9375567877  -0.015244510842 0.00540164  0.00013137  0.0048751 0.0000
  5   -812.9380342471  -0.000477459371 0.00317103  0.00005427  0.0038678 0.0000
                      *** Initiating the SOSCF procedure ***
                           *** Shutting down DIIS ***
                      *** Re-Reading the Fockian *** 
                      *** Removing any level shift *** 
ITER      Energy       Delta-E        Grad      Rot      Max-DP    RMS-DP
  6   -812.93812997  -0.0000957237  0.000796  0.000796  0.001373  0.000038
               *** Restarting incremental Fock matrix formation ***
  7   -812.93819148  -0.0000615128  0.000308  0.000739  0.000569  0.000019
  8   -812.93819509  -0.0000036050  0.000145  0.000460  0.000473  0.000011
  9   -812.93819683  -0.0000017378  0.000027  0.000065  0.000127  0.000005
 10   -812.93819691  -0.0000000816  0.000015  0.000028  0.000047  0.000001
 11   -812.93819695  -0.0000000462  0.000006  0.000025  0.000016  0.000000
 12   -812.93819698  -0.0000000263  0.000003  0.000019  0.000008  0.000000
                  ***Gradient check signals convergence***
              ***Rediagonalizing the Fockian in SOSCF/NRSCF***

               *****************************************************
               *                     SUCCESS                       *
               *           SCF CONVERGED AFTER  13 CYCLES          *
               *****************************************************

Old exchange energy                            =    -37.607636332 Eh
New exchange energy                            =    -37.607696875 Eh
Exchange energy change after final integration =     -0.000060543 Eh
Total energy after final integration           =   -812.938257527 Eh
Final COS-X integration done in                =     7.177 sec

----------------
TOTAL SCF ENERGY
----------------

Total Energy       :         -812.93825753 Eh          -22121.17461 eV

Components:
Nuclear Repulsion  :         1492.79711788 Eh           40621.07471 eV
Electronic Energy  :        -2305.73537540 Eh          -62742.24932 eV
One Electron Energy:        -4044.40211571 Eh         -110053.77659 eV
Two Electron Energy:         1738.66674030 Eh           47311.52728 eV
Max COSX asymmetry :            0.00000442 Eh               0.00012 eV
CPCM Dielectric    :           -0.07061396 Eh              -1.92150 eV

Virial components:
Potential Energy   :        -1617.04740795 Eh          -44002.09699 eV
Kinetic Energy     :          804.10915043 Eh           21880.92239 eV
Virial Ratio       :            2.01097999


DFT components:
N(Alpha)           :       70.999930290288 electrons
N(Beta)            :       70.999930290288 electrons
N(Total)           :      141.999860580577 electrons
E(XC)              :      -82.115611938382 Eh       
DFET-embed. en.    :        0.000000000000 Eh       
CPCM Solvation Model Properties:
Surface-charge          :           -1.02533241
Charge-correction       :            0.00284989 Eh               0.07755 eV
Free-energy (cav+disp)  :  This term is not implemented in the current solvation scheme

---------------
SCF CONVERGENCE
---------------

  Last Energy change         ...   -3.9859e-09  Tolerance :   1.0000e-08
  Last MAX-Density change    ...    3.5527e-15  Tolerance :   1.0000e-07
  Last RMS-Density change    ...    3.5168e-17  Tolerance :   5.0000e-09
  Last Orbital Gradient      ...    8.3223e-07  Tolerance :   1.0000e-05
  Last Orbital Rotation      ...    5.5565e-06  Tolerance :   1.0000e-05

             **** THE GBW FILE WAS UPDATED (orca.gbw) ****
             **** DENSITY orca.scfp WAS UPDATED ****
             **** ENERGY FILE WAS UPDATED (orca.en.tmp) ****
             **** THE GBW FILE WAS UPDATED (orca.gbw) ****
             **** DENSITY orca.scfp WAS UPDATED ****
----------------
ORBITAL ENERGIES
----------------

  NO   OCC          E(Eh)            E(eV) 
   0   2.0000     -14.468283      -393.7020 
   1   2.0000     -14.465504      -393.6264 
   2   2.0000     -10.364473      -282.0316 
   3   2.0000     -10.356590      -281.8171 
   4   2.0000     -10.352368      -281.7023 
   5   2.0000     -10.352330      -281.7012 
   6   2.0000     -10.330015      -281.0940 
   7   2.0000     -10.327413      -281.0232 
   8   2.0000     -10.326630      -281.0019 
   9   2.0000     -10.323463      -280.9157 
  10   2.0000     -10.320462      -280.8340 
  11   2.0000     -10.316898      -280.7371 
  12   2.0000     -10.314314      -280.6668 
  13   2.0000     -10.313669      -280.6492 
  14   2.0000     -10.313582      -280.6468 
  15   2.0000     -10.313180      -280.6359 
  16   2.0000     -10.309022      -280.5228 
  17   2.0000     -10.280082      -279.7353 
  18   2.0000     -10.279897      -279.7302 
  19   2.0000     -10.278254      -279.6855 
  20   2.0000      -2.088004       -56.8175 
  21   2.0000      -1.109256       -30.1844 
  22   2.0000      -1.083522       -29.4841 
  23   2.0000      -0.988912       -26.9097 
  24   2.0000      -0.967968       -26.3397 
  25   2.0000      -0.943072       -25.6623 
  26   2.0000      -0.932732       -25.3809 
  27   2.0000      -0.900375       -24.5004 
  28   2.0000      -0.876880       -23.8611 
  29   2.0000      -0.861226       -23.4352 
  30   2.0000      -0.804697       -21.8969 
  31   2.0000      -0.796319       -21.6689 
  32   2.0000      -0.788481       -21.4557 
  33   2.0000      -0.774493       -21.0750 
  34   2.0000      -0.766210       -20.8496 
  35   2.0000      -0.734931       -19.9985 
  36   2.0000      -0.700141       -19.0518 
  37   2.0000      -0.690649       -18.7935 
  38   2.0000      -0.662811       -18.0360 
  39   2.0000      -0.649768       -17.6811 
  40   2.0000      -0.639497       -17.4016 
  41   2.0000      -0.606112       -16.4931 
  42   2.0000      -0.599520       -16.3138 
  43   2.0000      -0.595763       -16.2115 
  44   2.0000      -0.576736       -15.6938 
  45   2.0000      -0.567290       -15.4367 
  46   2.0000      -0.560727       -15.2582 
  47   2.0000      -0.548170       -14.9165 
  48   2.0000      -0.544590       -14.8190 
  49   2.0000      -0.533401       -14.5146 
  50   2.0000      -0.529780       -14.4160 
  51   2.0000      -0.526901       -14.3377 
  52   2.0000      -0.520012       -14.1502 
  53   2.0000      -0.515875       -14.0377 
  54   2.0000      -0.496197       -13.5022 
  55   2.0000      -0.487993       -13.2790 
  56   2.0000      -0.485935       -13.2229 
  57   2.0000      -0.474586       -12.9141 
  58   2.0000      -0.465228       -12.6595 
  59   2.0000      -0.463962       -12.6251 
  60   2.0000      -0.460323       -12.5260 
  61   2.0000      -0.444051       -12.0833 
  62   2.0000      -0.435082       -11.8392 
  63   2.0000      -0.423546       -11.5253 
  64   2.0000      -0.418389       -11.3849 
  65   2.0000      -0.413225       -11.2444 
  66   2.0000      -0.412516       -11.2251 
  67   2.0000      -0.395920       -10.7735 
  68   2.0000      -0.380847       -10.3634 
  69   2.0000      -0.338893        -9.2217 
  70   2.0000      -0.327003        -8.8982 
  71   0.0000      -0.014486        -0.3942 
  72   0.0000      -0.007991        -0.2174 
  73   0.0000       0.031021         0.8441 
  74   0.0000       0.044320         1.2060 
  75   0.0000       0.078051         2.1239 
  76   0.0000       0.085481         2.3260 
  77   0.0000       0.131241         3.5712 
  78   0.0000       0.139654         3.8002 
  79   0.0000       0.147342         4.0094 
  80   0.0000       0.148837         4.0501 
  81   0.0000       0.160890         4.3780 
  82   0.0000       0.173366         4.7175 
  83   0.0000       0.179100         4.8736 
  84   0.0000       0.187220         5.0945 
  85   0.0000       0.193277         5.2593 
  86   0.0000       0.197075         5.3627 
  87   0.0000       0.202000         5.4967 
  88   0.0000       0.208497         5.6735 
  89   0.0000       0.213002         5.7961 
  90   0.0000       0.217741         5.9250 
  91   0.0000       0.222709         6.0602 
  92   0.0000       0.232622         6.3300 
  93   0.0000       0.236441         6.4339 
  94   0.0000       0.247253         6.7281 
  95   0.0000       0.257461         7.0059 
  96   0.0000       0.262246         7.1361 
  97   0.0000       0.264588         7.1998 
  98   0.0000       0.271612         7.3909 
  99   0.0000       0.278628         7.5818 
 100   0.0000       0.280164         7.6236 
 101   0.0000       0.284326         7.7369 
 102   0.0000       0.293877         7.9968 
 103   0.0000       0.299279         8.1438 
 104   0.0000       0.312019         8.4905 
 105   0.0000       0.321077         8.7369 
 106   0.0000       0.325032         8.8446 
 107   0.0000       0.336648         9.1607 
 108   0.0000       0.339003         9.2247 
 109   0.0000       0.339939         9.2502 
 110   0.0000       0.358485         9.7549 
 111   0.0000       0.368867        10.0374 
 112   0.0000       0.374352        10.1866 
 113   0.0000       0.379277        10.3206 
 114   0.0000       0.391571        10.6552 
 115   0.0000       0.400392        10.8952 
 116   0.0000       0.413610        11.2549 
 117   0.0000       0.415396        11.3035 
 118   0.0000       0.423808        11.5324 
 119   0.0000       0.434747        11.8301 
 120   0.0000       0.445099        12.1118 
 121   0.0000       0.466612        12.6972 
 122   0.0000       0.470604        12.8058 
 123   0.0000       0.478565        13.0224 
 124   0.0000       0.482601        13.1322 
 125   0.0000       0.492699        13.4070 
 126   0.0000       0.497014        13.5244 
 127   0.0000       0.500011        13.6060 
 128   0.0000       0.514792        14.0082 
 129   0.0000       0.524730        14.2786 
 130   0.0000       0.534035        14.5318 
 131   0.0000       0.537696        14.6315 
 132   0.0000       0.550595        14.9824 
 133   0.0000       0.554090        15.0775 
 134   0.0000       0.555028        15.1031 
 135   0.0000       0.564928        15.3725 
 136   0.0000       0.572431        15.5766 
 137   0.0000       0.591193        16.0872 
 138   0.0000       0.596691        16.2368 
 139   0.0000       0.603253        16.4153 
 140   0.0000       0.609328        16.5807 
 141   0.0000       0.619558        16.8590 
 142   0.0000       0.622963        16.9517 
 143   0.0000       0.635801        17.3010 
 144   0.0000       0.641849        17.4656 
 145   0.0000       0.645217        17.5572 
 146   0.0000       0.660936        17.9850 
 147   0.0000       0.670406        18.2427 
 148   0.0000       0.674238        18.3470 
 149   0.0000       0.680134        18.5074 
 150   0.0000       0.686834        18.6897 
 151   0.0000       0.691998        18.8302 
 152   0.0000       0.697858        18.9897 
 153   0.0000       0.700855        19.0712 
 154   0.0000       0.718742        19.5580 
 155   0.0000       0.723400        19.6847 
 156   0.0000       0.731336        19.9007 
 157   0.0000       0.735829        20.0229 
 158   0.0000       0.737463        20.0674 
 159   0.0000       0.741215        20.1695 
 160   0.0000       0.743754        20.2386 
 161   0.0000       0.747748        20.3473 
 162   0.0000       0.750792        20.4301 
 163   0.0000       0.755521        20.5588 
 164   0.0000       0.765563        20.8320 
 165   0.0000       0.766523        20.8582 
 166   0.0000       0.771194        20.9853 
 167   0.0000       0.774677        21.0800 
 168   0.0000       0.777298        21.1514 
 169   0.0000       0.778578        21.1862 
 170   0.0000       0.786402        21.3991 
 171   0.0000       0.793064        21.5804 
 172   0.0000       0.797025        21.6882 
 173   0.0000       0.804650        21.8956 
 174   0.0000       0.806981        21.9591 
 175   0.0000       0.808992        22.0138 
 176   0.0000       0.817924        22.2569 
 177   0.0000       0.820870        22.3370 
 178   0.0000       0.824334        22.4313 
 179   0.0000       0.830409        22.5966 
 180   0.0000       0.838678        22.8216 
 181   0.0000       0.841466        22.8975 
 182   0.0000       0.845313        23.0021 
 183   0.0000       0.856055        23.2944 
 184   0.0000       0.858057        23.3489 
 185   0.0000       0.865438        23.5498 
 186   0.0000       0.871806        23.7230 
 187   0.0000       0.879643        23.9363 
 188   0.0000       0.892589        24.2886 
 189   0.0000       0.894797        24.3487 
 190   0.0000       0.914566        24.8866 
 191   0.0000       0.920052        25.0359 
 192   0.0000       0.930447        25.3187 
 193   0.0000       0.941231        25.6122 
 194   0.0000       0.962171        26.1820 
 195   0.0000       0.976958        26.5844 
 196   0.0000       0.979476        26.6529 
 197   0.0000       0.995987        27.1022 
 198   0.0000       1.022675        27.8284 
 199   0.0000       1.048540        28.5322 
 200   0.0000       1.052193        28.6316 
 201   0.0000       1.056268        28.7425 
 202   0.0000       1.089919        29.6582 
 203   0.0000       1.117111        30.3981 
 204   0.0000       1.133411        30.8417 
 205   0.0000       1.152477        31.3605 
 206   0.0000       1.170475        31.8502 
 207   0.0000       1.184756        32.2389 
 208   0.0000       1.197381        32.5824 
 209   0.0000       1.203395        32.7460 
 210   0.0000       1.216895        33.1134 
 211   0.0000       1.237540        33.6752 
 212   0.0000       1.254557        34.1382 
 213   0.0000       1.269696        34.5502 
 214   0.0000       1.273485        34.6533 
 215   0.0000       1.305944        35.5365 
 216   0.0000       1.312880        35.7253 
 217   0.0000       1.315434        35.7948 
 218   0.0000       1.321385        35.9567 
 219   0.0000       1.334174        36.3047 
 220   0.0000       1.346445        36.6386 
 221   0.0000       1.352933        36.8152 
 222   0.0000       1.356955        36.9246 
 223   0.0000       1.359854        37.0035 
 224   0.0000       1.362617        37.0787 
 225   0.0000       1.368106        37.2281 
 226   0.0000       1.368928        37.2504 
 227   0.0000       1.408496        38.3271 
 228   0.0000       1.416962        38.5575 
 229   0.0000       1.429559        38.9003 
 230   0.0000       1.432776        38.9878 
 231   0.0000       1.448960        39.4282 
 232   0.0000       1.460964        39.7549 
 233   0.0000       1.466095        39.8945 
 234   0.0000       1.473999        40.1095 
 235   0.0000       1.496113        40.7113 
 236   0.0000       1.528407        41.5901 
 237   0.0000       1.562094        42.5067 
 238   0.0000       1.564999        42.5858 
 239   0.0000       1.568126        42.6709 
 240   0.0000       1.592746        43.3408 
 241   0.0000       1.609495        43.7966 
 242   0.0000       1.627280        44.2805 
 243   0.0000       1.649460        44.8841 
 244   0.0000       1.654710        45.0269 
 245   0.0000       1.663266        45.2598 
 246   0.0000       1.664144        45.2837 
 247   0.0000       1.714279        46.6479 
 248   0.0000       1.723855        46.9085 
 249   0.0000       1.747270        47.5456 
 250   0.0000       1.748499        47.5791 
 251   0.0000       1.758239        47.8441 
 252   0.0000       1.765379        48.0384 
 253   0.0000       1.770310        48.1726 
 254   0.0000       1.774584        48.2889 
 255   0.0000       1.789911        48.7060 
 256   0.0000       1.804108        49.0923 
 257   0.0000       1.814501        49.3751 
 258   0.0000       1.818644        49.4878 
 259   0.0000       1.836841        49.9830 
 260   0.0000       1.839687        50.0604 
 261   0.0000       1.845002        50.2051 
 262   0.0000       1.848309        50.2950 
 263   0.0000       1.855220        50.4831 
[...]
    112      -0.000566   0.000455  -0.000252
    113       0.000055  -0.000034   0.000007
    114      -0.000013   0.000032  -0.000308
    115       0.000002  -0.000039  -0.000098
    116      -0.000000   0.000006  -0.000102


-----------
IR SPECTRUM
-----------

 Mode   freq       eps      Int      T**2         TX        TY        TZ
       cm**-1   L/(mol*cm) km/mol    a.u.
----------------------------------------------------------------------------
  6:     37.82   0.000034    0.17  0.000281  ( 0.001085  0.003952  0.016245)
  7:     50.95   0.000093    0.47  0.000569  (-0.000329 -0.004511 -0.023413)
  8:     67.84   0.000040    0.20  0.000185  ( 0.004434  0.007509 -0.010415)
  9:    104.20   0.000520    2.63  0.001557  (-0.001604  0.001493  0.039404)
 10:    113.61   0.000706    3.57  0.001939  ( 0.006075  0.011294  0.042127)
 11:    130.95   0.002416   12.21  0.005757  ( 0.001807 -0.006123 -0.075604)
 12:    167.49   0.009960   50.33  0.018558  (-0.021823 -0.006757 -0.134298)
 13:    174.39   0.006482   32.76  0.011599  (-0.017184  0.015471  0.105186)
 14:    190.59   0.000516    2.61  0.000845  ( 0.018396 -0.001508 -0.022447)
 15:    240.89   0.000108    0.55  0.000140  (-0.001390  0.000598  0.011745)
 16:    251.37   0.000555    2.80  0.000688  (-0.021605  0.014791  0.001688)
 17:    261.11   0.000012    0.06  0.000014  ( 0.000222  0.003796 -0.000131)
 18:    274.82   0.000033    0.17  0.000037  ( 0.001851  0.001245  0.005673)
 19:    290.28   0.000636    3.22  0.000684  (-0.025899  0.001528  0.003291)
 20:    303.65   0.000236    1.19  0.000242  (-0.011880  0.009018  0.004433)
 21:    341.37   0.000087    0.44  0.000080  (-0.006969  0.003069  0.004657)
 22:    346.54   0.002602   13.15  0.002343  (-0.047582  0.004749 -0.007534)
 23:    364.19   0.000125    0.63  0.000107  (-0.005401  0.007779  0.004131)
 24:    377.20   0.011454   57.88  0.009476  (-0.097262  0.002743 -0.002890)
 25:    398.52   0.012368   62.50  0.009685  ( 0.037009  0.090053 -0.014330)
 26:    420.45   0.001160    5.86  0.000861  (-0.025588  0.011701 -0.008329)
 27:    425.01   0.005064   25.59  0.003718  ( 0.045651 -0.038825  0.011271)
 28:    442.81   0.003106   15.70  0.002189  ( 0.041136 -0.022190 -0.002123)
 29:    458.42   0.004761   24.06  0.003241  (-0.007795 -0.055856  0.007772)
 30:    473.58   0.004983   25.18  0.003284  ( 0.005151 -0.056347  0.009070)
 31:    491.52   0.001104    5.58  0.000701  ( 0.005179  0.024104 -0.009636)
 32:    499.70   0.003103   15.68  0.001938  (-0.022592 -0.037222 -0.006493)
 33:    545.57   0.000512    2.59  0.000293  (-0.002712 -0.008111  0.014816)
 34:    554.51   0.000113    0.57  0.000064  ( 0.003843  0.004041  0.005705)
 35:    587.36   0.001484    7.50  0.000788  ( 0.012709 -0.025024 -0.000813)
 36:    592.24   0.000061    0.31  0.000032  (-0.001303  0.003638 -0.004137)
 37:    611.42   0.001456    7.36  0.000743  ( 0.003023 -0.000164  0.027089)
 38:    665.78   0.000339    1.71  0.000159  ( 0.004203  0.001133  0.011834)
 39:    697.12   0.001749    8.84  0.000783  ( 0.027881 -0.002317 -0.000368)
 40:    709.57   0.007984   40.35  0.003511  (-0.059024 -0.000504 -0.005226)
 41:    729.38   0.004990   25.22  0.002135  ( 0.019344  0.001842 -0.041919)
 42:    772.01   0.005054   25.54  0.002043  ( 0.000325  0.045188  0.000882)
 43:    792.45   0.007021   35.48  0.002765  ( 0.015839  0.005072  0.049882)
 44:    823.96   0.003320   16.78  0.001257  ( 0.019040  0.029508 -0.004915)
 45:    850.70   0.000710    3.59  0.000260  ( 0.012875 -0.002299  0.009455)
 46:    869.67   0.001509    7.62  0.000541  (-0.018594  0.013852 -0.001946)
 47:    890.41   0.010674   53.94  0.003741  (-0.007648 -0.005854 -0.060401)
 48:    905.09   0.003565   18.02  0.001229  ( 0.000412 -0.000463 -0.035056)
 49:    933.94   0.002227   11.26  0.000744  (-0.007834 -0.025784 -0.004248)
 50:    948.98   0.000263    1.33  0.000087  ( 0.001246  0.000831  0.009183)
 51:    955.92   0.000552    2.79  0.000180  ( 0.008373  0.010380 -0.001517)
 52:    958.33   0.000137    0.69  0.000045  ( 0.000567 -0.000166 -0.006665)
 53:    967.47   0.005003   25.28  0.001614  (-0.002000 -0.002337 -0.040054)
 54:    979.65   0.004358   22.02  0.001388  (-0.032352 -0.017970 -0.004316)
 55:    988.56   0.013877   70.13  0.004381  (-0.031702  0.016563 -0.055688)
 56:    996.81   0.000203    1.02  0.000063  (-0.000874 -0.003260 -0.007212)
 57:   1027.40   0.002153   10.88  0.000654  (-0.011424 -0.004695 -0.022393)
 58:   1030.68   0.000605    3.06  0.000183  (-0.007450 -0.001199 -0.011238)
 59:   1039.90   0.000545    2.75  0.000164  ( 0.012581 -0.002285  0.000009)
 60:   1040.60   0.000607    3.07  0.000182  (-0.012485  0.004525 -0.002369)
 61:   1045.80   0.000063    0.32  0.000019  (-0.000558 -0.000639  0.004246)
 62:   1046.49   0.000723    3.65  0.000215  (-0.002061 -0.011523 -0.008856)
 63:   1114.19   0.001148    5.80  0.000321  ( 0.011986  0.013013  0.002908)
 64:   1133.44   0.005616   28.38  0.001546  (-0.018235  0.034801 -0.001616)
 65:   1158.26   0.001704    8.61  0.000459  ( 0.011341  0.018099 -0.001732)
 66:   1169.82   0.008429   42.59  0.002248  (-0.046606 -0.008627  0.001375)
 67:   1216.02   0.008844   44.69  0.002270  ( 0.040322 -0.025371 -0.000302)
 68:   1234.92   0.000928    4.69  0.000234  (-0.005780 -0.014092  0.001568)
 69:   1246.54   0.002069   10.46  0.000518  ( 0.015008  0.005516 -0.016195)
 70:   1247.08   0.007454   37.67  0.001865  ( 0.037043  0.021647  0.004953)
 71:   1249.00   0.001233    6.23  0.000308  ( 0.010325 -0.013668  0.003824)
 72:   1272.29   0.002189   11.06  0.000537  (-0.004749 -0.022644  0.001278)
 73:   1302.60   0.002524   12.76  0.000605  ( 0.024275  0.001201  0.003753)
 74:   1306.42   0.001110    5.61  0.000265  ( 0.015545 -0.000545 -0.004821)
 75:   1345.59   0.000788    3.98  0.000183  (-0.012585 -0.004013  0.002862)
 76:   1386.19   0.002007   10.15  0.000452  (-0.001340 -0.002737 -0.021039)
 77:   1387.49   0.002068   10.45  0.000465  ( 0.006028  0.020699  0.000450)
 78:   1389.96   0.001489    7.52  0.000334  ( 0.009295 -0.015734 -0.000586)
 79:   1398.31   0.003381   17.09  0.000755  ( 0.027291 -0.002780  0.001445)
 80:   1408.79   0.000072    0.36  0.000016  (-0.001564 -0.003638  0.000423)
 81:   1425.23   0.003102   15.68  0.000679  ( 0.006597 -0.022672 -0.011029)
 82:   1427.28   0.002262   11.43  0.000494  (-0.014418 -0.014921  0.007999)
 83:   1451.84   0.000127    0.64  0.000027  ( 0.004604  0.000997 -0.002247)
 84:   1453.89   0.000050    0.25  0.000011  ( 0.001312  0.001991 -0.002252)
 85:   1456.01   0.000786    3.97  0.000168  ( 0.012578  0.003015 -0.001056)
 86:   1464.40   0.007301   36.90  0.001556  ( 0.033879 -0.020129 -0.001723)
 87:   1471.20   0.003028   15.30  0.000642  ( 0.007201  0.013441 -0.020243)
 88:   1473.03   0.011881   60.04  0.002517  ( 0.025500  0.042512  0.007712)
 89:   1480.21   0.003550   17.94  0.000748  (-0.010269  0.025285  0.001884)
 90:   1488.32   0.010600   53.57  0.002223  ( 0.045277  0.013127 -0.000603)
 91:   1522.86   0.000094    0.47  0.000019  ( 0.002856  0.002334  0.002364)
 92:   1559.80   0.006859   34.66  0.001372  (-0.036630  0.000372 -0.005507)
 93:   1591.95   0.026513  133.99  0.005197  ( 0.003620 -0.071919  0.003444)
 94:   1669.47   0.029264  147.89  0.005470  (-0.068679 -0.027436 -0.000767)
 95:   1697.80   0.009932   50.19  0.001825  ( 0.009061  0.041751  0.000538)
 96:   1710.62   0.005944   30.04  0.001084  (-0.017866 -0.027477 -0.003186)
 97:   1721.36   0.001455    7.35  0.000264  (-0.006838  0.014729 -0.000276)
 98:   1741.04   0.002186   11.05  0.000392  ( 0.004023  0.019232 -0.002388)
 99:   3051.81   0.006894   34.84  0.000705  ( 0.001190  0.021027  0.016169)
100:   3053.11   0.006581   33.26  0.000673  ( 0.005649  0.013334 -0.021516)
101:   3057.27   0.004173   21.09  0.000426  ( 0.019045 -0.005098  0.006101)
102:   3152.22   0.001253    6.33  0.000124  ( 0.003486 -0.000505 -0.010566)
103:   3152.94   0.004797   24.24  0.000475  (-0.011769 -0.000027 -0.018337)
104:   3153.42   0.003179   16.06  0.000315  (-0.006024  0.003052  0.016400)
105:   3155.26   0.005473   27.66  0.000541  ( 0.007587  0.016845 -0.014142)
106:   3156.45   0.014845   75.02  0.001468  ( 0.033609 -0.018040 -0.003559)
107:   3159.39   0.007770   39.27  0.000768  (-0.021448 -0.016305 -0.006454)
108:   3161.00   0.001078    5.45  0.000106  ( 0.008494 -0.003995 -0.004280)
109:   3200.86   0.000481    2.43  0.000047  (-0.005264 -0.004351  0.000489)
110:   3205.28   0.001542    7.79  0.000150  (-0.008260  0.009049 -0.000264)
111:   3216.51   0.000093    0.47  0.000009  ( 0.002857  0.000900  0.000183)
112:   3220.85   0.000482    2.43  0.000047  (-0.003567  0.005825 -0.000009)
113:   3231.49   0.001117    5.64  0.000108  ( 0.001213  0.010300 -0.000530)
114:   3233.40   0.000108    0.55  0.000010  (-0.003088 -0.000929  0.000223)
115:   3237.79   0.000084    0.43  0.000008  (-0.002820  0.000080  0.000397)
116:   3270.80   0.000433    2.19  0.000041  ( 0.006228  0.000372 -0.001538)

* The epsilon (eps) is given for a Dirac delta lineshape.
** The dipole moment derivative (T) already includes vibrational overlap.

The first frequency considered to be a vibration is 6
The total number of vibrations considered is 111


--------------------------
THERMOCHEMISTRY AT 298.15K
--------------------------

Temperature         ... 298.15 K
Pressure            ... 1.00 atm
Total Mass          ... 269.30 AMU

Throughout the following assumptions are being made:
  (1) The electronic state is orbitally nondegenerate
  (2) There are no thermally accessible electronically excited states
  (3) Hindered rotations indicated by low frequency modes are not
      treated as such but are treated as vibrations and this may
      cause some error
  (4) All equations used are the standard statistical mechanics
      equations for an ideal gas
  (5) All vibrations are strictly harmonic

freq.      37.82  E(vib)   ...       0.54 
freq.      50.95  E(vib)   ...       0.52 
freq.      67.84  E(vib)   ...       0.50 
freq.     104.20  E(vib)   ...       0.46 
freq.     113.61  E(vib)   ...       0.44 
freq.     130.95  E(vib)   ...       0.42 
freq.     167.49  E(vib)   ...       0.38 
freq.     174.39  E(vib)   ...       0.38 
freq.     190.59  E(vib)   ...       0.36 
freq.     240.89  E(vib)   ...       0.31 
freq.     251.37  E(vib)   ...       0.30 
freq.     261.11  E(vib)   ...       0.30 
freq.     274.82  E(vib)   ...       0.28 
freq.     290.28  E(vib)   ...       0.27 
freq.     303.65  E(vib)   ...       0.26 
freq.     341.37  E(vib)   ...       0.23 
freq.     346.54  E(vib)   ...       0.23 
freq.     364.19  E(vib)   ...       0.22 
freq.     377.20  E(vib)   ...       0.21 
freq.     398.52  E(vib)   ...       0.20 
freq.     420.45  E(vib)   ...       0.18 
freq.     425.01  E(vib)   ...       0.18 
freq.     442.81  E(vib)   ...       0.17 
freq.     458.42  E(vib)   ...       0.16 
freq.     473.58  E(vib)   ...       0.15 
freq.     491.52  E(vib)   ...       0.14 
freq.     499.70  E(vib)   ...       0.14 
freq.     545.57  E(vib)   ...       0.12 
freq.     554.51  E(vib)   ...       0.12 
freq.     587.36  E(vib)   ...       0.10 
freq.     592.24  E(vib)   ...       0.10 
freq.     611.42  E(vib)   ...       0.10 
freq.     665.78  E(vib)   ...       0.08 
freq.     697.12  E(vib)   ...       0.07 
freq.     709.57  E(vib)   ...       0.07 
freq.     729.38  E(vib)   ...       0.06 
freq.     772.01  E(vib)   ...       0.05 
freq.     792.45  E(vib)   ...       0.05 
freq.     823.96  E(vib)   ...       0.05 
freq.     850.70  E(vib)   ...       0.04 
freq.     869.67  E(vib)   ...       0.04 
freq.     890.41  E(vib)   ...       0.04 
freq.     905.09  E(vib)   ...       0.03 
freq.     933.94  E(vib)   ...       0.03 
freq.     948.98  E(vib)   ...       0.03 
freq.     955.92  E(vib)   ...       0.03 
freq.     958.33  E(vib)   ...       0.03 
freq.     967.47  E(vib)   ...       0.03 
freq.     979.65  E(vib)   ...       0.03 
freq.     988.56  E(vib)   ...       0.02 
freq.     996.81  E(vib)   ...       0.02 
freq.    1027.40  E(vib)   ...       0.02 
freq.    1030.68  E(vib)   ...       0.02 
freq.    1039.90  E(vib)   ...       0.02 
freq.    1040.60  E(vib)   ...       0.02 
freq.    1045.80  E(vib)   ...       0.02 
freq.    1046.49  E(vib)   ...       0.02 
freq.    1114.19  E(vib)   ...       0.01 
freq.    1133.44  E(vib)   ...       0.01 
freq.    1158.26  E(vib)   ...       0.01 
freq.    1169.82  E(vib)   ...       0.01 
freq.    1216.02  E(vib)   ...       0.01 
freq.    1234.92  E(vib)   ...       0.01 
freq.    1246.54  E(vib)   ...       0.01 
freq.    1247.08  E(vib)   ...       0.01 
freq.    1249.00  E(vib)   ...       0.01 
freq.    1272.29  E(vib)   ...       0.01 
freq.    1302.60  E(vib)   ...       0.01 
freq.    1306.42  E(vib)   ...       0.01 
freq.    1345.59  E(vib)   ...       0.01 
freq.    1386.19  E(vib)   ...       0.00 
freq.    1387.49  E(vib)   ...       0.00 
freq.    1389.96  E(vib)   ...       0.00 
freq.    1398.31  E(vib)   ...       0.00 
freq.    1408.79  E(vib)   ...       0.00 
freq.    1425.23  E(vib)   ...       0.00 
freq.    1427.28  E(vib)   ...       0.00 
freq.    1451.84  E(vib)   ...       0.00 
freq.    1453.89  E(vib)   ...       0.00 
freq.    1456.01  E(vib)   ...       0.00 
freq.    1464.40  E(vib)   ...       0.00 
freq.    1471.20  E(vib)   ...       0.00 
freq.    1473.03  E(vib)   ...       0.00 
freq.    1480.21  E(vib)   ...       0.00 
freq.    1488.32  E(vib)   ...       0.00 
freq.    1522.86  E(vib)   ...       0.00 
freq.    1559.80  E(vib)   ...       0.00 
freq.    1591.95  E(vib)   ...       0.00 
freq.    1669.47  E(vib)   ...       0.00 
freq.    1697.80  E(vib)   ...       0.00 
freq.    1710.62  E(vib)   ...       0.00 
freq.    1721.36  E(vib)   ...       0.00 
freq.    1741.04  E(vib)   ...       0.00 
freq.    3051.81  E(vib)   ...       0.00 
freq.    3053.11  E(vib)   ...       0.00 
freq.    3057.27  E(vib)   ...       0.00 
freq.    3152.22  E(vib)   ...       0.00 
freq.    3152.94  E(vib)   ...       0.00 
freq.    3153.42  E(vib)   ...       0.00 
freq.    3155.26  E(vib)   ...       0.00 
freq.    3156.45  E(vib)   ...       0.00 
freq.    3159.39  E(vib)   ...       0.00 
freq.    3161.00  E(vib)   ...       0.00 
freq.    3200.86  E(vib)   ...       0.00 
freq.    3205.28  E(vib)   ...       0.00 
freq.    3216.51  E(vib)   ...       0.00 
freq.    3220.85  E(vib)   ...       0.00 
freq.    3231.49  E(vib)   ...       0.00 
freq.    3233.40  E(vib)   ...       0.00 
freq.    3237.79  E(vib)   ...       0.00 
freq.    3270.80  E(vib)   ...       0.00 

------------
INNER ENERGY
------------

The inner energy is: U= E(el) + E(ZPE) + E(vib) + E(rot) + E(trans)
    E(el)   - is the total energy from the electronic structure calculation
              = E(kin-el) + E(nuc-el) + E(el-el) + E(nuc-nuc)
    E(ZPE)  - the the zero temperature vibrational energy from the frequency calculation
    E(vib)  - the the finite temperature correction to E(ZPE) due to population
              of excited vibrational states
    E(rot)  - is the rotational thermal energy
    E(trans)- is the translational thermal energy

Summary of contributions to the inner energy U:
Electronic energy                ...   -812.95852221 Eh
Zero point energy                ...      0.32144969 Eh     201.71 kcal/mol
Thermal vibrational correction   ...      0.01531306 Eh       9.61 kcal/mol
Thermal rotational correction    ...      0.00141627 Eh       0.89 kcal/mol
Thermal translational correction ...      0.00141627 Eh       0.89 kcal/mol
-----------------------------------------------------------------------
Total thermal energy                   -812.61892692 Eh


Summary of corrections to the electronic energy:
(perhaps to be used in another calculation)
Total thermal correction                  0.01814560 Eh      11.39 kcal/mol
Non-thermal (ZPE) correction              0.32144969 Eh     201.71 kcal/mol
-----------------------------------------------------------------------
Total correction                          0.33959530 Eh     213.10 kcal/mol


--------
ENTHALPY
--------

The enthalpy is H = U + kB*T
                kB is Boltzmann's constant
Total free energy                 ...   -812.61892692 Eh 
Thermal Enthalpy correction       ...      0.00094421 Eh       0.59 kcal/mol
-----------------------------------------------------------------------
Total Enthalpy                    ...   -812.61798271 Eh


Note: Only C1 symmetry has been detected, increase convergence thresholds 
      if your molecule has a higher symmetry. Symmetry factor of 1.0 is   
      used for the rotational entropy correction. 
 

Note: Rotational entropy computed according to Herzberg 
Infrared and Raman Spectra, Chapter V,1, Van Nostrand Reinhold, 1945 
Point Group:  C1, Symmetry Number:   1  
Rotational constants in cm-1:     0.023028     0.006195     0.005065 

Vibrational entropy computed according to the QRRHO of S. Grimme
Chem.Eur.J. 2012 18 9955


-------
ENTROPY
-------

The entropy contributions are T*S = T*(S(el)+S(vib)+S(rot)+S(trans))
     S(el)   - electronic entropy
     S(vib)  - vibrational entropy
     S(rot)  - rotational entropy
     S(trans)- translational entropy
The entropies will be listed as multiplied by the temperature to get
units of energy

Electronic entropy                ...      0.00000000 Eh      0.00 kcal/mol
Vibrational entropy               ...      0.02591570 Eh     16.26 kcal/mol
Rotational entropy                ...      0.01618633 Eh     10.16 kcal/mol
Translational entropy             ...      0.02027426 Eh     12.72 kcal/mol
-----------------------------------------------------------------------
Final entropy term                ...      0.06237629 Eh     39.14 kcal/mol

In case the symmetry of your molecule has not been determined correctly
or in case you have a reason to use a different symmetry number we print 
out the resulting rotational entropy values for sn=1,12 :
 --------------------------------------------------------
|  sn= 1 | S(rot)=       0.01618633 Eh     10.16 kcal/mol|
|  sn= 2 | S(rot)=       0.01553187 Eh      9.75 kcal/mol|
|  sn= 3 | S(rot)=       0.01514904 Eh      9.51 kcal/mol|
|  sn= 4 | S(rot)=       0.01487742 Eh      9.34 kcal/mol|
|  sn= 5 | S(rot)=       0.01466673 Eh      9.20 kcal/mol|
|  sn= 6 | S(rot)=       0.01449458 Eh      9.10 kcal/mol|
|  sn= 7 | S(rot)=       0.01434904 Eh      9.00 kcal/mol|
|  sn= 8 | S(rot)=       0.01422296 Eh      8.93 kcal/mol|
|  sn= 9 | S(rot)=       0.01411175 Eh      8.86 kcal/mol|
|  sn=10 | S(rot)=       0.01401227 Eh      8.79 kcal/mol|
|  sn=11 | S(rot)=       0.01392228 Eh      8.74 kcal/mol|
|  sn=12 | S(rot)=       0.01384013 Eh      8.68 kcal/mol|
 --------------------------------------------------------


-------------------
GIBBS FREE ENERGY
-------------------

The Gibbs free energy is G = H - T*S

Total enthalpy                    ...   -812.61798271 Eh 
Total entropy correction          ...     -0.06237629 Eh    -39.14 kcal/mol
-----------------------------------------------------------------------
Final Gibbs free energy         ...   -812.68035900 Eh

For completeness - the Gibbs free energy minus the electronic energy
G-E(el)                           ...      0.27816321 Eh    174.55 kcal/mol


Timings for individual modules:

Sum of individual times         ...     2151.582 sec (=  35.860 min)
GTO integral calculation        ...       68.968 sec (=   1.149 min)   3.2 %
SCF iterations                  ...      955.885 sec (=  15.931 min)  44.4 %
SCF Gradient evaluation         ...      148.802 sec (=   2.480 min)   6.9 %
Geometry relaxation             ...        0.728 sec (=   0.012 min)   0.0 %
Analytical frequency calculation...      977.200 sec (=  16.287 min)  45.4 %
                             ****ORCA TERMINATED NORMALLY****
TOTAL RUN TIME: 0 days 0 hours 36 minutes 12 seconds 568 msec
