 Entering Gaussian System, Link 0=g16
 Input=protonate_1.com
 Output=protonate_1.log
 Initial command:
 /soft/gaussian/16-c.01/g16/l1.exe "/scratch/Gau-65107.inp" -scrdir="/scratch/"
 Default CPUs for threads: 0-63
 Default linda workers: knld-0001
 Default is to use  64 SMP processors on each worker.
 Entering Link 1 = /soft/gaussian/16-c.01/g16/l1.exe PID=     65108.
  
 Copyright (c) 1988-2019, Gaussian, Inc.  All Rights Reserved.
  
 This is part of the Gaussian(R) 16 program.  It is based on
 the Gaussian(R) 09 system (copyright 2009, Gaussian, Inc.),
 the Gaussian(R) 03 system (copyright 2003, Gaussian, Inc.),
 the Gaussian(R) 98 system (copyright 1998, Gaussian, Inc.),
 the Gaussian(R) 94 system (copyright 1995, Gaussian, Inc.),
 the Gaussian 92(TM) system (copyright 1992, Gaussian, Inc.),
 the Gaussian 90(TM) system (copyright 1990, Gaussian, Inc.),
 the Gaussian 88(TM) system (copyright 1988, Gaussian, Inc.),
 the Gaussian 86(TM) system (copyright 1986, Carnegie Mellon
 University), and the Gaussian 82(TM) system (copyright 1983,
 Carnegie Mellon University). Gaussian is a federally registered
 trademark of Gaussian, Inc.
  
 This software contains proprietary and confidential information,
 including trade secrets, belonging to Gaussian, Inc.
  
 This software is provided under written license and may be
 used, copied, transmitted, or stored only in accord with that
 written license.
  
 The following legend is applicable only to US Government
 contracts under FAR:
  
                    RESTRICTED RIGHTS LEGEND
  
 Use, reproduction and disclosure by the US Government is
 subject to restrictions as set forth in subparagraphs (a)
 and (c) of the Commercial Computer Software - Restricted
 Rights clause in FAR 52.227-19.
  
 Gaussian, Inc.
 340 Quinnipiac St., Bldg. 40, Wallingford CT 06492
  
  
 ---------------------------------------------------------------
 Warning -- This program may not be used in any manner that
 competes with the business of Gaussian, Inc. or will provide
 assistance to any competitor of Gaussian, Inc.  The licensee
 of this program is prohibited from giving any competitor of
 Gaussian, Inc. access to this program.  By using this program,
 the user acknowledges that Gaussian, Inc. is engaged in the
 business of creating and licensing software in the field of
 computational chemistry and represents and warrants to the
 licensee that it is not a competitor of Gaussian, Inc. and that
 it will not use this program in any manner prohibited above.
 ---------------------------------------------------------------
  

 Cite this work as:
 Gaussian 16, Revision C.01,
 M. J. Frisch, G. W. Trucks, H. B. Schlegel, G. E. Scuseria, 
 M. A. Robb, J. R. Cheeseman, G. Scalmani, V. Barone, 
 G. A. Petersson, H. Nakatsuji, X. Li, M. Caricato, A. V. Marenich, 
 J. Bloino, B. G. Janesko, R. Gomperts, B. Mennucci, H. P. Hratchian, 
 J. V. Ortiz, A. F. Izmaylov, J. L. Sonnenberg, D. Williams-Young, 
 F. Ding, F. Lipparini, F. Egidi, J. Goings, B. Peng, A. Petrone, 
 T. Henderson, D. Ranasinghe, V. G. Zakrzewski, J. Gao, N. Rega, 
 G. Zheng, W. Liang, M. Hada, M. Ehara, K. Toyota, R. Fukuda, 
 J. Hasegawa, M. Ishida, T. Nakajima, Y. Honda, O. Kitao, H. Nakai, 
 T. Vreven, K. Throssell, J. A. Montgomery, Jr., J. E. Peralta, 
 F. Ogliaro, M. J. Bearpark, J. J. Heyd, E. N. Brothers, K. N. Kudin, 
 V. N. Staroverov, T. A. Keith, R. Kobayashi, J. Normand, 
 K. Raghavachari, A. P. Rendell, J. C. Burant, S. S. Iyengar, 
 J. Tomasi, M. Cossi, J. M. Millam, M. Klene, C. Adamo, R. Cammi, 
 J. W. Ochterski, R. L. Martin, K. Morokuma, O. Farkas, 
 J. B. Foresman, and D. J. Fox, Gaussian, Inc., Wallingford CT, 2019.
 
 ******************************************
 Gaussian 16:  ES64L-G16RevC.01  3-Jul-2019
                24-Oct-2023 
 ******************************************
 %chk=protonate_1
 SetSPE:  set environment variable "MP_BIND" = "yes"
 SetSPE:  set environment variable "MP_BLIST" = "0,1,2,3,4,5,6,7,8,9,10,11,12,13,14,15,16,17,18,19,20,21,22,23,24,25,26,27,28,29,30,31,32,33,34,35,36,37,38,39,40,41,42,43,44,45,46,47,48,49,50,51,52,53,54,55,56,57,58,59,60,61,62,63"
 SetLPE:    new flags="-opt 'Tsnet.Node.lindarsharg: ssh'  -nodelist 'knld-0001.lcrc.anl.gov' -env GAUSS_MDEF=6710886400 -env GAUSS_EXEDIR="/soft/gaussian/16-c.01/g16/bsd:/soft/gaussian/16-c.01/g16" -env "MP_BIND=yes" -env "MP_BLIST=0,1,2,3,4,5,6,7,8,9,10,11,12,13,14,15,16,17,18,19,20,21,22,23,24,25,26,27,28,29,30,31,32,33,34,35,36,37,38,39,40,41,42,43,44,45,46,47,48,49,50,51,52,53,54,55,56,57,58,59,60,61,62,63" -env GAUSS_ADEF="0,1,2,3,4,5,6,7,8,9,10,11,12,13,14,15,16,17,18,19,20,21,22,23,24,25,26,27,28,29,30,31,32,33,34,35,36,37,38,39,40,41,42,43,44,45,46,47,48,49,50,51,52,53,54,55,56,57,58,59,60,61,62,63""
 Will use up to    1 processors via Linda.
 ----------------------------------------------------------------------
 #p opt freq b3lyp empiricaldispersion=gd3 6-31+g(d,p) scf=(novaracc,ma
 xcycles=1000,fermi,xqc)
 ----------------------------------------------------------------------
 1/18=20,19=15,26=3,38=1/1,3;
 2/9=110,12=2,17=6,18=5,40=1/2;
 3/5=1,6=6,7=111,11=2,25=1,30=1,71=1,74=-5,124=31/1,2,3;
 4//1;
 5/5=2,7=1000,8=3,13=1,22=13,38=1/2,8;
 6/7=2,8=2,9=2,10=2,28=1/1;
 7//1,2,3,16;
 1/18=20,19=15,26=3/3(2);
 2/9=110/2;
 99//99;
 2/9=110/2;
 3/5=1,6=6,7=111,11=2,25=1,30=1,71=1,74=-5,124=31/1,2,3;
 4/5=5,16=3,69=1/1;
 5/5=2,7=1000,8=3,13=1,22=13,38=1/2,8;
 7//1,2,3,16;
 1/18=20,19=15,26=3/3(-5);
 2/9=110/2;
 6/7=2,8=2,9=2,10=2,19=2,28=1/1;
 99/9=1/99;
 Leave Link    1 at Tue Oct 24 17:40:25 2023, MaxMem=           0 cpu:              14.1 elap:               0.2
 (Enter /soft/gaussian/16-c.01/g16/l101.exe)
 -----
 title
 -----
 Symbolic Z-matrix:
 Charge =  1 Multiplicity = 1
 C                     0.72637  -0.04858   0.07444 
 C                    -0.65692  -0.04383   0.0645 
 C                    -1.34705  -0.16939  -1.13393 
 C                    -0.64024  -0.39602  -2.30934 
 C                     0.74123  -0.39932  -2.29986 
 C                     1.43296  -0.17714  -1.11429 
 C                     2.93622  -0.01637  -1.12038 
 C                     3.33379   1.23217  -0.35926 
 C                     3.60665  -1.23087  -0.51629 
 C                     4.32977  -1.15236   0.61479 
 C                     4.92827  -2.34068   1.30378 
 C                     4.78167  -3.61161   0.57354 
 C                     4.09438  -3.68697  -0.64814 
 C                     3.45066  -2.50573  -1.25071 
 C                     4.1397    1.159     0.73086 
 C                     4.60917   2.37007   1.48744 
 C                     4.29208   3.65675   0.83608 
 C                     3.38017   3.72057  -0.22893 
 C                     2.74493   2.50194  -0.74731 
 C                     4.8869    4.82108   1.30926 
 C                     4.60079   6.04274   0.7166 
 C                     3.69544   6.1098   -0.33215 
 C                     3.07888   4.95798  -0.79561 
 C                     5.35747  -4.75986   1.11099 
 C                     5.26747  -5.96934   0.4409 
 C                     4.60102  -6.04166  -0.77383 
 C                     4.01345  -4.90833  -1.31217 
 O                     5.47299  -2.23213   2.37617 
 O                     2.84947  -2.54507  -2.30695 
 O                     5.21453   2.26878   2.52381 
 O                     1.73852   2.55852  -1.47137 
 C                    -2.8487    0.00181  -1.15932 
 C                    -3.52999  -1.19042  -0.52509 
 C                    -3.23956   1.27371  -0.43447 
 C                    -4.05597   1.23694   0.65001 
 C                    -2.62915   2.52662  -0.84336 
 C                    -3.27051   3.76341  -0.37699 
 C                    -4.18492   3.73866   0.68754 
 C                    -4.51653   2.47373   1.3725 
 C                    -2.96931   4.97769  -0.99147 
 C                    -3.58351   6.14726  -0.57077 
 C                    -4.48354   6.12051   0.48456 
 C                    -4.7739    4.92107   1.12094 
 C                    -4.26253  -1.07593   0.59661 
 C                    -3.3683   -2.48729  -1.21893 
 C                    -4.01794  -3.64886  -0.58589 
 C                    -4.70752  -3.53666   0.63187 
 C                    -4.85652  -2.24406   1.3232 
 C                    -3.93607  -4.88938  -1.21365 
 C                    -4.52314  -6.00661  -0.64239 
 C                    -5.18912  -5.89843   0.57012 
 C                    -5.28118  -4.66926   1.20359 
 O                     4.59204   0.01808   1.25582 
 O                    -4.52737   0.11529   1.19893 
 O                    -2.7561   -2.55881  -2.26716 
 O                    -5.3955   -2.1052    2.3954 
 O                    -1.60377   2.5568   -1.53876 
 O                    -5.13241   2.40564   2.40545 
 H                     3.25637   0.07796  -2.16626 
 H                    -3.16022   0.06926  -2.20967 
 H                     5.87697  -4.68025   2.05521 
 H                     5.72128  -6.85222   0.86425 
 H                     4.53746  -6.98097  -1.30204 
 H                     3.48604  -4.94713  -2.25463 
 H                    -3.40745  -4.95584  -2.15403 
 H                    -4.45903  -6.96116  -1.14287 
 H                    -5.64061  -6.76897   1.02044 
 H                    -5.80059  -4.56247   2.14532 
 H                    -2.26338   4.98433  -1.81043 
 H                    -3.35986   7.08005  -1.06763 
 H                    -4.95775   7.0327    0.81399 
 H                     1.25351   0.05508   1.01358 
 H                    -1.19652   0.06368   0.99591 
 H                    -1.17634  -0.59779  -3.22513 
 H                     1.28831  -0.60375  -3.20804 
 H                     5.57231   4.74943   2.13928 
 H                     5.08022   6.94057   1.07642 
 H                    -5.45853   4.8825    1.954 
 H                     3.4705    7.06097  -0.79026 
 H                     2.37321   4.99492  -1.61219 
 Li                    0.08368   2.11987  -1.83884 
 
 ITRead=  0  0  0  0  0  0  0  0  0  0  0  0  0  0  0  0  0  0  0  0
 ITRead=  0  0  0  0  0  0  0  0  0  0  0  0  0  0  0  0  0  0  0  0
 ITRead=  0  0  0  0  0  0  0  0  0  0  0  0  0  0  0  0  0  0  0  0
 ITRead=  0  0  0  0  0  0  0  0  0  0  0  0  0  0  0  0  0  0  0  0
 ITRead=  0
 MicOpt= -1 -1 -1 -1 -1 -1 -1 -1 -1 -1 -1 -1 -1 -1 -1 -1 -1 -1 -1 -1
 MicOpt= -1 -1 -1 -1 -1 -1 -1 -1 -1 -1 -1 -1 -1 -1 -1 -1 -1 -1 -1 -1
 MicOpt= -1 -1 -1 -1 -1 -1 -1 -1 -1 -1 -1 -1 -1 -1 -1 -1 -1 -1 -1 -1
 MicOpt= -1 -1 -1 -1 -1 -1 -1 -1 -1 -1 -1 -1 -1 -1 -1 -1 -1 -1 -1 -1
 MicOpt= -1
 NAtoms=     81 NQM=       81 NQMF=       0 NMMI=      0 NMMIF=      0
                NMic=       0 NMicF=      0.
                    Isotopes and Nuclear Properties:
 (Nuclear quadrupole moments (NQMom) in fm**2, nuclear magnetic moments (NMagM)
  in nuclear magnetons)

  Atom         1           2           3           4           5           6           7           8           9          10
 IAtWgt=          12          12          12          12          12          12          12          12          12          12
 AtmWgt=  12.0000000  12.0000000  12.0000000  12.0000000  12.0000000  12.0000000  12.0000000  12.0000000  12.0000000  12.0000000
 NucSpn=           0           0           0           0           0           0           0           0           0           0
 AtZEff=  -0.0000000  -0.0000000  -0.0000000  -0.0000000  -0.0000000  -0.0000000  -0.0000000  -0.0000000  -0.0000000  -0.0000000
 NQMom=    0.0000000   0.0000000   0.0000000   0.0000000   0.0000000   0.0000000   0.0000000   0.0000000   0.0000000   0.0000000
 NMagM=    0.0000000   0.0000000   0.0000000   0.0000000   0.0000000   0.0000000   0.0000000   0.0000000   0.0000000   0.0000000
 AtZNuc=   6.0000000   6.0000000   6.0000000   6.0000000   6.0000000   6.0000000   6.0000000   6.0000000   6.0000000   6.0000000

  Atom        11          12          13          14          15          16          17          18          19          20
 IAtWgt=          12          12          12          12          12          12          12          12          12          12
 AtmWgt=  12.0000000  12.0000000  12.0000000  12.0000000  12.0000000  12.0000000  12.0000000  12.0000000  12.0000000  12.0000000
 NucSpn=           0           0           0           0           0           0           0           0           0           0
 AtZEff=  -0.0000000  -0.0000000  -0.0000000  -0.0000000  -0.0000000  -0.0000000  -0.0000000  -0.0000000  -0.0000000  -0.0000000
 NQMom=    0.0000000   0.0000000   0.0000000   0.0000000   0.0000000   0.0000000   0.0000000   0.0000000   0.0000000   0.0000000
 NMagM=    0.0000000   0.0000000   0.0000000   0.0000000   0.0000000   0.0000000   0.0000000   0.0000000   0.0000000   0.0000000
 AtZNuc=   6.0000000   6.0000000   6.0000000   6.0000000   6.0000000   6.0000000   6.0000000   6.0000000   6.0000000   6.0000000

  Atom        21          22          23          24          25          26          27          28          29          30
 IAtWgt=          12          12          12          12          12          12          12          16          16          16
 AtmWgt=  12.0000000  12.0000000  12.0000000  12.0000000  12.0000000  12.0000000  12.0000000  15.9949146  15.9949146  15.9949146
 NucSpn=           0           0           0           0           0           0           0           0           0           0
 AtZEff=  -0.0000000  -0.0000000  -0.0000000  -0.0000000  -0.0000000  -0.0000000  -0.0000000  -0.0000000  -0.0000000  -0.0000000
 NQMom=    0.0000000   0.0000000   0.0000000   0.0000000   0.0000000   0.0000000   0.0000000   0.0000000   0.0000000   0.0000000
 NMagM=    0.0000000   0.0000000   0.0000000   0.0000000   0.0000000   0.0000000   0.0000000   0.0000000   0.0000000   0.0000000
 AtZNuc=   6.0000000   6.0000000   6.0000000   6.0000000   6.0000000   6.0000000   6.0000000   8.0000000   8.0000000   8.0000000

  Atom        31          32          33          34          35          36          37          38          39          40
 IAtWgt=          16          12          12          12          12          12          12          12          12          12
 AtmWgt=  15.9949146  12.0000000  12.0000000  12.0000000  12.0000000  12.0000000  12.0000000  12.0000000  12.0000000  12.0000000
 NucSpn=           0           0           0           0           0           0           0           0           0           0
 AtZEff=  -0.0000000  -0.0000000  -0.0000000  -0.0000000  -0.0000000  -0.0000000  -0.0000000  -0.0000000  -0.0000000  -0.0000000
 NQMom=    0.0000000   0.0000000   0.0000000   0.0000000   0.0000000   0.0000000   0.0000000   0.0000000   0.0000000   0.0000000
 NMagM=    0.0000000   0.0000000   0.0000000   0.0000000   0.0000000   0.0000000   0.0000000   0.0000000   0.0000000   0.0000000
 AtZNuc=   8.0000000   6.0000000   6.0000000   6.0000000   6.0000000   6.0000000   6.0000000   6.0000000   6.0000000   6.0000000

  Atom        41          42          43          44          45          46          47          48          49          50
 IAtWgt=          12          12          12          12          12          12          12          12          12          12
 AtmWgt=  12.0000000  12.0000000  12.0000000  12.0000000  12.0000000  12.0000000  12.0000000  12.0000000  12.0000000  12.0000000
 NucSpn=           0           0           0           0           0           0           0           0           0           0
 AtZEff=  -0.0000000  -0.0000000  -0.0000000  -0.0000000  -0.0000000  -0.0000000  -0.0000000  -0.0000000  -0.0000000  -0.0000000
 NQMom=    0.0000000   0.0000000   0.0000000   0.0000000   0.0000000   0.0000000   0.0000000   0.0000000   0.0000000   0.0000000
 NMagM=    0.0000000   0.0000000   0.0000000   0.0000000   0.0000000   0.0000000   0.0000000   0.0000000   0.0000000   0.0000000
 AtZNuc=   6.0000000   6.0000000   6.0000000   6.0000000   6.0000000   6.0000000   6.0000000   6.0000000   6.0000000   6.0000000

  Atom        51          52          53          54          55          56          57          58          59          60
 IAtWgt=          12          12          16          16          16          16          16          16           1           1
 AtmWgt=  12.0000000  12.0000000  15.9949146  15.9949146  15.9949146  15.9949146  15.9949146  15.9949146   1.0078250   1.0078250
 NucSpn=           0           0           0           0           0           0           0           0           1           1
 AtZEff=  -0.0000000  -0.0000000  -0.0000000  -0.0000000  -0.0000000  -0.0000000  -0.0000000  -0.0000000  -0.0000000  -0.0000000
 NQMom=    0.0000000   0.0000000   0.0000000   0.0000000   0.0000000   0.0000000   0.0000000   0.0000000   0.0000000   0.0000000
 NMagM=    0.0000000   0.0000000   0.0000000   0.0000000   0.0000000   0.0000000   0.0000000   0.0000000   2.7928460   2.7928460
 AtZNuc=   6.0000000   6.0000000   8.0000000   8.0000000   8.0000000   8.0000000   8.0000000   8.0000000   1.0000000   1.0000000

  Atom        61          62          63          64          65          66          67          68          69          70
 IAtWgt=           1           1           1           1           1           1           1           1           1           1
 AtmWgt=   1.0078250   1.0078250   1.0078250   1.0078250   1.0078250   1.0078250   1.0078250   1.0078250   1.0078250   1.0078250
 NucSpn=           1           1           1           1           1           1           1           1           1           1
 AtZEff=  -0.0000000  -0.0000000  -0.0000000  -0.0000000  -0.0000000  -0.0000000  -0.0000000  -0.0000000  -0.0000000  -0.0000000
 NQMom=    0.0000000   0.0000000   0.0000000   0.0000000   0.0000000   0.0000000   0.0000000   0.0000000   0.0000000   0.0000000
 NMagM=    2.7928460   2.7928460   2.7928460   2.7928460   2.7928460   2.7928460   2.7928460   2.7928460   2.7928460   2.7928460
 AtZNuc=   1.0000000   1.0000000   1.0000000   1.0000000   1.0000000   1.0000000   1.0000000   1.0000000   1.0000000   1.0000000

  Atom        71          72          73          74          75          76          77          78          79          80
 IAtWgt=           1           1           1           1           1           1           1           1           1           1
 AtmWgt=   1.0078250   1.0078250   1.0078250   1.0078250   1.0078250   1.0078250   1.0078250   1.0078250   1.0078250   1.0078250
 NucSpn=           1           1           1           1           1           1           1           1           1           1
 AtZEff=  -0.0000000  -0.0000000  -0.0000000  -0.0000000  -0.0000000  -0.0000000  -0.0000000  -0.0000000  -0.0000000  -0.0000000
 NQMom=    0.0000000   0.0000000   0.0000000   0.0000000   0.0000000   0.0000000   0.0000000   0.0000000   0.0000000   0.0000000
 NMagM=    2.7928460   2.7928460   2.7928460   2.7928460   2.7928460   2.7928460   2.7928460   2.7928460   2.7928460   2.7928460
 AtZNuc=   1.0000000   1.0000000   1.0000000   1.0000000   1.0000000   1.0000000   1.0000000   1.0000000   1.0000000   1.0000000

  Atom        81
 IAtWgt=           7
 AtmWgt=   7.0160045
 NucSpn=           3
 AtZEff=  -0.0000000
 NQMom=   -4.0100000
 NMagM=    3.2564240
 AtZNuc=   3.0000000
 Leave Link  101 at Tue Oct 24 17:40:26 2023, MaxMem=  6710886400 cpu:              34.8 elap:               0.6
 (Enter /soft/gaussian/16-c.01/g16/l103.exe)

 GradGradGradGradGradGradGradGradGradGradGradGradGradGradGradGradGradGrad
 Berny optimization.
 Initialization pass.
                           ----------------------------
                           !    Initial Parameters    !
                           ! (Angstroms and Degrees)  !
 --------------------------                            --------------------------
 ! Name  Definition              Value          Derivative Info.                !
 --------------------------------------------------------------------------------
 ! R1    R(1,2)                  1.3833         estimate D2E/DX2                !
 ! R2    R(1,6)                  1.3888         estimate D2E/DX2                !
 ! R3    R(1,72)                 1.0819         estimate D2E/DX2                !
 ! R4    R(2,3)                  1.3886         estimate D2E/DX2                !
 ! R5    R(2,73)                 1.0818         estimate D2E/DX2                !
 ! R6    R(3,4)                  1.3902         estimate D2E/DX2                !
 ! R7    R(3,32)                 1.5116         estimate D2E/DX2                !
 ! R8    R(4,5)                  1.3815         estimate D2E/DX2                !
 ! R9    R(4,74)                 1.0802         estimate D2E/DX2                !
 ! R10   R(5,6)                  1.3905         estimate D2E/DX2                !
 ! R11   R(5,75)                 1.0798         estimate D2E/DX2                !
 ! R12   R(6,7)                  1.5118         estimate D2E/DX2                !
 ! R13   R(7,8)                  1.5153         estimate D2E/DX2                !
 ! R14   R(7,9)                  1.5131         estimate D2E/DX2                !
 ! R15   R(7,59)                 1.0978         estimate D2E/DX2                !
 ! R16   R(8,15)                 1.3576         estimate D2E/DX2                !
 ! R17   R(8,19)                 1.4525         estimate D2E/DX2                !
 ! R18   R(9,10)                 1.3448         estimate D2E/DX2                !
 ! R19   R(9,14)                 1.4795         estimate D2E/DX2                !
 ! R20   R(10,11)                1.4983         estimate D2E/DX2                !
 ! R21   R(10,53)                1.36           estimate D2E/DX2                !
 ! R22   R(11,12)                1.4731         estimate D2E/DX2                !
 ! R23   R(11,28)                1.2077         estimate D2E/DX2                !
 ! R24   R(12,13)                1.4038         estimate D2E/DX2                !
 ! R25   R(12,24)                1.3924         estimate D2E/DX2                !
 ! R26   R(13,14)                1.474          estimate D2E/DX2                !
 ! R27   R(13,27)                1.3926         estimate D2E/DX2                !
 ! R28   R(14,29)                1.216          estimate D2E/DX2                !
 ! R29   R(15,16)                1.5032         estimate D2E/DX2                !
 ! R30   R(15,53)                1.3349         estimate D2E/DX2                !
 ! R31   R(16,17)                1.4766         estimate D2E/DX2                !
 ! R32   R(16,30)                1.2045         estimate D2E/DX2                !
 ! R33   R(17,18)                1.4035         estimate D2E/DX2                !
 ! R34   R(17,20)                1.3905         estimate D2E/DX2                !
 ! R35   R(18,19)                1.4688         estimate D2E/DX2                !
 ! R36   R(18,23)                1.3939         estimate D2E/DX2                !
 ! R37   R(19,31)                1.2411         estimate D2E/DX2                !
 ! R38   R(20,21)                1.3876         estimate D2E/DX2                !
 ! R39   R(20,76)                1.0788         estimate D2E/DX2                !
 ! R40   R(21,22)                1.3871         estimate D2E/DX2                !
 ! R41   R(21,77)                1.0795         estimate D2E/DX2                !
 ! R42   R(22,23)                1.3862         estimate D2E/DX2                !
 ! R43   R(22,79)                1.0794         estimate D2E/DX2                !
 ! R44   R(23,80)                1.0799         estimate D2E/DX2                !
 ! R45   R(24,25)                1.3856         estimate D2E/DX2                !
 ! R46   R(24,61)                1.0806         estimate D2E/DX2                !
 ! R47   R(25,26)                1.3874         estimate D2E/DX2                !
 ! R48   R(25,62)                1.0792         estimate D2E/DX2                !
 ! R49   R(26,27)                1.3855         estimate D2E/DX2                !
 ! R50   R(26,63)                1.0795         estimate D2E/DX2                !
 ! R51   R(27,64)                1.0807         estimate D2E/DX2                !
 ! R52   R(31,81)                1.751          estimate D2E/DX2                !
 ! R53   R(32,33)                1.5125         estimate D2E/DX2                !
 ! R54   R(32,34)                1.5152         estimate D2E/DX2                !
 ! R55   R(32,60)                1.0977         estimate D2E/DX2                !
 ! R56   R(33,44)                1.3446         estimate D2E/DX2                !
 ! R57   R(33,45)                1.4797         estimate D2E/DX2                !
 ! R58   R(34,35)                1.3579         estimate D2E/DX2                !
 ! R59   R(34,36)                1.4524         estimate D2E/DX2                !
 ! R60   R(35,39)                1.5046         estimate D2E/DX2                !
 ! R61   R(35,54)                1.3348         estimate D2E/DX2                !
 ! R62   R(36,37)                1.4692         estimate D2E/DX2                !
 ! R63   R(36,57)                1.2393         estimate D2E/DX2                !
 ! R64   R(37,38)                1.4036         estimate D2E/DX2                !
 ! R65   R(37,40)                1.3938         estimate D2E/DX2                !
 ! R66   R(38,39)                1.4762         estimate D2E/DX2                !
 ! R67   R(38,43)                1.3903         estimate D2E/DX2                !
 ! R68   R(39,58)                1.2046         estimate D2E/DX2                !
 ! R69   R(40,41)                1.3864         estimate D2E/DX2                !
 ! R70   R(40,69)                1.0812         estimate D2E/DX2                !
 ! R71   R(41,42)                1.3873         estimate D2E/DX2                !
 ! R72   R(41,70)                1.0803         estimate D2E/DX2                !
 ! R73   R(42,43)                1.3885         estimate D2E/DX2                !
 ! R74   R(42,71)                1.0796         estimate D2E/DX2                !
 ! R75   R(43,78)                1.079          estimate D2E/DX2                !
 ! R76   R(44,48)                1.4984         estimate D2E/DX2                !
 ! R77   R(44,54)                1.3609         estimate D2E/DX2                !
 ! R78   R(45,46)                1.4738         estimate D2E/DX2                !
 ! R79   R(45,55)                1.216          estimate D2E/DX2                !
 ! R80   R(46,47)                1.4039         estimate D2E/DX2                !
 ! R81   R(46,49)                1.3927         estimate D2E/DX2                !
 ! R82   R(47,48)                1.4734         estimate D2E/DX2                !
 ! R83   R(47,52)                1.3924         estimate D2E/DX2                !
 ! R84   R(48,56)                1.2081         estimate D2E/DX2                !
 ! R85   R(49,50)                1.3853         estimate D2E/DX2                !
 ! R86   R(49,65)                1.0808         estimate D2E/DX2                !
 ! R87   R(50,51)                1.3876         estimate D2E/DX2                !
 ! R88   R(50,66)                1.0797         estimate D2E/DX2                !
 ! R89   R(51,52)                1.3859         estimate D2E/DX2                !
 ! R90   R(51,67)                1.0791         estimate D2E/DX2                !
 ! R91   R(52,68)                1.0808         estimate D2E/DX2                !
 ! R92   R(57,81)                1.7687         estimate D2E/DX2                !
 ! A1    A(2,1,6)              120.1932         estimate D2E/DX2                !
 ! A2    A(2,1,72)             119.5445         estimate D2E/DX2                !
 ! A3    A(6,1,72)             120.261          estimate D2E/DX2                !
 ! A4    A(1,2,3)              120.1896         estimate D2E/DX2                !
 ! A5    A(1,2,73)             119.5345         estimate D2E/DX2                !
 ! A6    A(3,2,73)             120.2751         estimate D2E/DX2                !
 ! A7    A(2,3,4)              119.4566         estimate D2E/DX2                !
 ! A8    A(2,3,32)             119.8663         estimate D2E/DX2                !
 ! A9    A(4,3,32)             120.6211         estimate D2E/DX2                !
 ! A10   A(3,4,5)              120.1994         estimate D2E/DX2                !
 ! A11   A(3,4,74)             119.6665         estimate D2E/DX2                !
 ! A12   A(5,4,74)             120.1108         estimate D2E/DX2                !
 ! A13   A(4,5,6)              120.1945         estimate D2E/DX2                !
 ! A14   A(4,5,75)             120.0886         estimate D2E/DX2                !
 ! A15   A(6,5,75)             119.6918         estimate D2E/DX2                !
 ! A16   A(1,6,5)              119.4375         estimate D2E/DX2                !
 ! A17   A(1,6,7)              119.9656         estimate D2E/DX2                !
 ! A18   A(5,6,7)              120.5446         estimate D2E/DX2                !
 ! A19   A(6,7,8)              110.2716         estimate D2E/DX2                !
 ! A20   A(6,7,9)              110.708          estimate D2E/DX2                !
 ! A21   A(6,7,59)             107.6341         estimate D2E/DX2                !
 ! A22   A(8,7,9)              110.1556         estimate D2E/DX2                !
 ! A23   A(8,7,59)             109.3416         estimate D2E/DX2                !
 ! A24   A(9,7,59)             108.6692         estimate D2E/DX2                !
 ! A25   A(7,8,15)             120.9731         estimate D2E/DX2                !
 ! A26   A(7,8,19)             118.6683         estimate D2E/DX2                !
 ! A27   A(15,8,19)            120.1527         estimate D2E/DX2                !
 ! A28   A(7,9,10)             121.8163         estimate D2E/DX2                !
 ! A29   A(7,9,14)             116.5348         estimate D2E/DX2                !
 ! A30   A(10,9,14)            121.6357         estimate D2E/DX2                !
 ! A31   A(9,10,11)            123.728          estimate D2E/DX2                !
 ! A32   A(9,10,53)            123.3936         estimate D2E/DX2                !
 ! A33   A(11,10,53)           112.8783         estimate D2E/DX2                !
 ! A34   A(10,11,12)           114.617          estimate D2E/DX2                !
 ! A35   A(10,11,28)           121.1445         estimate D2E/DX2                !
 ! A36   A(12,11,28)           124.2369         estimate D2E/DX2                !
 ! A37   A(11,12,13)           121.7667         estimate D2E/DX2                !
 ! A38   A(11,12,24)           118.6184         estimate D2E/DX2                !
 ! A39   A(13,12,24)           119.6106         estimate D2E/DX2                !
 ! A40   A(12,13,14)           121.7732         estimate D2E/DX2                !
 ! A41   A(12,13,27)           119.3756         estimate D2E/DX2                !
 ! A42   A(14,13,27)           118.8512         estimate D2E/DX2                !
 ! A43   A(9,14,13)            116.2026         estimate D2E/DX2                !
 ! A44   A(9,14,29)            120.7425         estimate D2E/DX2                !
 ! A45   A(13,14,29)           123.0298         estimate D2E/DX2                !
 ! A46   A(8,15,16)            123.1007         estimate D2E/DX2                !
 ! A47   A(8,15,53)            124.2628         estimate D2E/DX2                !
 ! A48   A(16,15,53)           112.6341         estimate D2E/DX2                !
 ! A49   A(15,16,17)           114.3907         estimate D2E/DX2                !
 ! A50   A(15,16,30)           121.4861         estimate D2E/DX2                !
 ! A51   A(17,16,30)           124.1079         estimate D2E/DX2                !
 ! A52   A(16,17,18)           120.9223         estimate D2E/DX2                !
 ! A53   A(16,17,20)           119.1886         estimate D2E/DX2                !
 ! A54   A(18,17,20)           119.8738         estimate D2E/DX2                !
 ! A55   A(17,18,19)           120.7361         estimate D2E/DX2                !
 ! A56   A(17,18,23)           119.293          estimate D2E/DX2                !
 ! A57   A(19,18,23)           119.971          estimate D2E/DX2                !
 ! A58   A(8,19,18)            117.1092         estimate D2E/DX2                !
 ! A59   A(8,19,31)            121.6333         estimate D2E/DX2                !
 ! A60   A(18,19,31)           121.2513         estimate D2E/DX2                !
 ! A61   A(17,20,21)           120.2427         estimate D2E/DX2                !
 ! A62   A(17,20,76)           118.5549         estimate D2E/DX2                !
 ! A63   A(21,20,76)           121.2022         estimate D2E/DX2                !
 ! A64   A(20,21,22)           120.0034         estimate D2E/DX2                !
 ! A65   A(20,21,77)           119.8856         estimate D2E/DX2                !
 ! A66   A(22,21,77)           120.1103         estimate D2E/DX2                !
 ! A67   A(21,22,23)           120.193          estimate D2E/DX2                !
 ! A68   A(21,22,79)           119.9659         estimate D2E/DX2                !
 ! A69   A(23,22,79)           119.8412         estimate D2E/DX2                !
 ! A70   A(18,23,22)           120.3677         estimate D2E/DX2                !
 ! A71   A(18,23,80)           118.6207         estimate D2E/DX2                !
 ! A72   A(22,23,80)           121.0003         estimate D2E/DX2                !
 ! A73   A(12,24,25)           120.4168         estimate D2E/DX2                !
 ! A74   A(12,24,61)           118.3787         estimate D2E/DX2                !
 ! A75   A(25,24,61)           121.2037         estimate D2E/DX2                !
 ! A76   A(24,25,26)           120.0067         estimate D2E/DX2                !
 ! A77   A(24,25,62)           119.8063         estimate D2E/DX2                !
 ! A78   A(26,25,62)           120.1863         estimate D2E/DX2                !
 ! A79   A(25,26,27)           120.0845         estimate D2E/DX2                !
 ! A80   A(25,26,63)           120.1347         estimate D2E/DX2                !
 ! A81   A(27,26,63)           119.7807         estimate D2E/DX2                !
 ! A82   A(13,27,26)           120.499          estimate D2E/DX2                !
 ! A83   A(13,27,64)           118.4052         estimate D2E/DX2                !
 ! A84   A(26,27,64)           121.0955         estimate D2E/DX2                !
 ! A85   A(19,31,81)           151.3296         estimate D2E/DX2                !
 ! A86   A(3,32,33)            110.5576         estimate D2E/DX2                !
 ! A87   A(3,32,34)            110.0775         estimate D2E/DX2                !
 ! A88   A(3,32,60)            107.7565         estimate D2E/DX2                !
 ! A89   A(33,32,34)           110.1739         estimate D2E/DX2                !
 ! A90   A(33,32,60)           108.7743         estimate D2E/DX2                !
 ! A91   A(34,32,60)           109.4493         estimate D2E/DX2                !
 ! A92   A(32,33,44)           121.876          estimate D2E/DX2                !
 ! A93   A(32,33,45)           116.4239         estimate D2E/DX2                !
 ! A94   A(44,33,45)           121.6908         estimate D2E/DX2                !
 ! A95   A(32,34,35)           120.9575         estimate D2E/DX2                !
 ! A96   A(32,34,36)           118.7519         estimate D2E/DX2                !
 ! A97   A(35,34,36)           120.0568         estimate D2E/DX2                !
 ! A98   A(34,35,39)           123.0433         estimate D2E/DX2                !
 ! A99   A(34,35,54)           124.2992         estimate D2E/DX2                !
 ! A100  A(39,35,54)           112.655          estimate D2E/DX2                !
 ! A101  A(34,36,37)           116.9588         estimate D2E/DX2                !
 ! A102  A(34,36,57)           121.7821         estimate D2E/DX2                !
 ! A103  A(37,36,57)           121.2521         estimate D2E/DX2                !
 ! A104  A(36,37,38)           120.6855         estimate D2E/DX2                !
 ! A105  A(36,37,40)           119.9406         estimate D2E/DX2                !
 ! A106  A(38,37,40)           119.3737         estimate D2E/DX2                !
 ! A107  A(37,38,39)           120.8889         estimate D2E/DX2                !
 ! A108  A(37,38,43)           119.8315         estimate D2E/DX2                !
 ! A109  A(39,38,43)           119.272          estimate D2E/DX2                !
 ! A110  A(35,39,38)           114.3807         estimate D2E/DX2                !
 ! A111  A(35,39,58)           121.455          estimate D2E/DX2                !
 ! A112  A(38,39,58)           124.1385         estimate D2E/DX2                !
 ! A113  A(37,40,41)           120.3591         estimate D2E/DX2                !
 ! A114  A(37,40,69)           118.7077         estimate D2E/DX2                !
 ! A115  A(41,40,69)           120.9242         estimate D2E/DX2                !
 ! A116  A(40,41,42)           120.1321         estimate D2E/DX2                !
 ! A117  A(40,41,70)           119.8113         estimate D2E/DX2                !
 ! A118  A(42,41,70)           120.0565         estimate D2E/DX2                !
 ! A119  A(41,42,43)           120.065          estimate D2E/DX2                !
 ! A120  A(41,42,71)           120.0543         estimate D2E/DX2                !
 ! A121  A(43,42,71)           119.8805         estimate D2E/DX2                !
 ! A122  A(38,43,42)           120.2134         estimate D2E/DX2                !
 ! A123  A(38,43,78)           118.6268         estimate D2E/DX2                !
 ! A124  A(42,43,78)           121.1594         estimate D2E/DX2                !
 ! A125  A(33,44,48)           123.6498         estimate D2E/DX2                !
 ! A126  A(33,44,54)           123.3522         estimate D2E/DX2                !
 ! A127  A(48,44,54)           112.9934         estimate D2E/DX2                !
 ! A128  A(33,45,46)           116.181          estimate D2E/DX2                !
 ! A129  A(33,45,55)           120.7154         estimate D2E/DX2                !
 ! A130  A(46,45,55)           123.0816         estimate D2E/DX2                !
 ! A131  A(45,46,47)           121.7422         estimate D2E/DX2                !
 ! A132  A(45,46,49)           118.8493         estimate D2E/DX2                !
 ! A133  A(47,46,49)           119.4076         estimate D2E/DX2                !
 ! A134  A(46,47,48)           121.7866         estimate D2E/DX2                !
 ! A135  A(46,47,52)           119.5718         estimate D2E/DX2                !
 ! A136  A(48,47,52)           118.6385         estimate D2E/DX2                !
 ! A137  A(44,48,47)           114.601          estimate D2E/DX2                !
 ! A138  A(44,48,56)           121.1735         estimate D2E/DX2                !
 ! A139  A(47,48,56)           124.2211         estimate D2E/DX2                !
 ! A140  A(46,49,50)           120.5012         estimate D2E/DX2                !
 ! A141  A(46,49,65)           118.4046         estimate D2E/DX2                !
 ! A142  A(50,49,65)           121.0941         estimate D2E/DX2                !
 ! A143  A(49,50,51)           120.0557         estimate D2E/DX2                !
 ! A144  A(49,50,66)           119.7803         estimate D2E/DX2                !
 ! A145  A(51,50,66)           120.1639         estimate D2E/DX2                !
 ! A146  A(50,51,52)           120.03           estimate D2E/DX2                !
 ! A147  A(50,51,67)           120.1698         estimate D2E/DX2                !
 ! A148  A(52,51,67)           119.7995         estimate D2E/DX2                !
 ! A149  A(47,52,51)           120.424          estimate D2E/DX2                !
 ! A150  A(47,52,68)           118.3865         estimate D2E/DX2                !
 ! A151  A(51,52,68)           121.1887         estimate D2E/DX2                !
 ! A152  A(10,53,15)           119.0031         estimate D2E/DX2                !
 ! A153  A(35,54,44)           119.0013         estimate D2E/DX2                !
 ! A154  A(36,57,81)           151.4658         estimate D2E/DX2                !
 ! A155  A(31,81,57)           143.5298         estimate D2E/DX2                !
 ! D1    D(6,1,2,3)              0.0865         estimate D2E/DX2                !
 ! D2    D(6,1,2,73)          -179.5861         estimate D2E/DX2                !
 ! D3    D(72,1,2,3)           179.6845         estimate D2E/DX2                !
 ! D4    D(72,1,2,73)            0.012          estimate D2E/DX2                !
 ! D5    D(2,1,6,5)             -4.7017         estimate D2E/DX2                !
 ! D6    D(2,1,6,7)            172.6842         estimate D2E/DX2                !
 ! D7    D(72,1,6,5)           175.7031         estimate D2E/DX2                !
 ! D8    D(72,1,6,7)            -6.9109         estimate D2E/DX2                !
 ! D9    D(1,2,3,4)              4.6019         estimate D2E/DX2                !
 ! D10   D(1,2,3,32)          -172.6959         estimate D2E/DX2                !
 ! D11   D(73,2,3,4)          -175.728          estimate D2E/DX2                !
 ! D12   D(73,2,3,32)            6.9741         estimate D2E/DX2                !
 ! D13   D(2,3,4,5)             -4.6738         estimate D2E/DX2                !
 ! D14   D(2,3,4,74)           173.5738         estimate D2E/DX2                !
 ! D15   D(32,3,4,5)           172.6032         estimate D2E/DX2                !
 ! D16   D(32,3,4,74)           -9.1492         estimate D2E/DX2                !
 ! D17   D(2,3,32,33)          -72.6883         estimate D2E/DX2                !
 ! D18   D(2,3,32,34)           49.2653         estimate D2E/DX2                !
 ! D19   D(2,3,32,60)          168.5596         estimate D2E/DX2                !
 ! D20   D(4,3,32,33)          110.0457         estimate D2E/DX2                !
 ! D21   D(4,3,32,34)         -128.0007         estimate D2E/DX2                !
 ! D22   D(4,3,32,60)           -8.7064         estimate D2E/DX2                !
 ! D23   D(3,4,5,6)              0.0568         estimate D2E/DX2                !
 ! D24   D(3,4,5,75)           178.2333         estimate D2E/DX2                !
 ! D25   D(74,4,5,6)          -178.183          estimate D2E/DX2                !
 ! D26   D(74,4,5,75)           -0.0065         estimate D2E/DX2                !
 ! D27   D(4,5,6,1)              4.6304         estimate D2E/DX2                !
 ! D28   D(4,5,6,7)           -172.7401         estimate D2E/DX2                !
 ! D29   D(75,5,6,1)          -173.5534         estimate D2E/DX2                !
 ! D30   D(75,5,6,7)             9.0762         estimate D2E/DX2                !
 ! D31   D(1,6,7,8)            -47.8127         estimate D2E/DX2                !
 ! D32   D(1,6,7,9)             74.3493         estimate D2E/DX2                !
 ! D33   D(1,6,7,59)          -167.0142         estimate D2E/DX2                !
 ! D34   D(5,6,7,8)            129.5439         estimate D2E/DX2                !
 ! D35   D(5,6,7,9)           -108.2941         estimate D2E/DX2                !
 ! D36   D(5,6,7,59)            10.3424         estimate D2E/DX2                !
 ! D37   D(6,7,8,15)           120.067          estimate D2E/DX2                !
 ! D38   D(6,7,8,19)           -54.7271         estimate D2E/DX2                !
 ! D39   D(9,7,8,15)            -2.4203         estimate D2E/DX2                !
 ! D40   D(9,7,8,19)          -177.2144         estimate D2E/DX2                !
 ! D41   D(59,7,8,15)         -121.7753         estimate D2E/DX2                !
 ! D42   D(59,7,8,19)           63.4306         estimate D2E/DX2                !
 ! D43   D(6,7,9,10)          -116.2114         estimate D2E/DX2                !
 ! D44   D(6,7,9,14)            65.0939         estimate D2E/DX2                !
 ! D45   D(8,7,9,10)             6.0184         estimate D2E/DX2                !
 ! D46   D(8,7,9,14)          -172.6763         estimate D2E/DX2                !
 ! D47   D(59,7,9,10)          125.7818         estimate D2E/DX2                !
 ! D48   D(59,7,9,14)          -52.9129         estimate D2E/DX2                !
 ! D49   D(7,8,15,16)          177.4244         estimate D2E/DX2                !
 ! D50   D(7,8,15,53)           -3.1814         estimate D2E/DX2                !
 ! D51   D(19,8,15,16)          -7.8582         estimate D2E/DX2                !
 ! D52   D(19,8,15,53)         171.5359         estimate D2E/DX2                !
 ! D53   D(7,8,19,18)         -165.3853         estimate D2E/DX2                !
 ! D54   D(7,8,19,31)           15.5123         estimate D2E/DX2                !
 ! D55   D(15,8,19,18)          19.7766         estimate D2E/DX2                !
 ! D56   D(15,8,19,31)        -159.3258         estimate D2E/DX2                !
 ! D57   D(7,9,10,11)          175.3995         estimate D2E/DX2                !
 ! D58   D(7,9,10,53)           -4.4491         estimate D2E/DX2                !
 ! D59   D(14,9,10,11)          -5.9722         estimate D2E/DX2                !
 ! D60   D(14,9,10,53)         174.1793         estimate D2E/DX2                !
 ! D61   D(7,9,14,13)         -179.3606         estimate D2E/DX2                !
 ! D62   D(7,9,14,29)            2.4087         estimate D2E/DX2                !
 ! D63   D(10,9,14,13)           1.9422         estimate D2E/DX2                !
 ! D64   D(10,9,14,29)        -176.2886         estimate D2E/DX2                !
 ! D65   D(9,10,11,12)           5.8733         estimate D2E/DX2                !
 ! D66   D(9,10,11,28)        -173.6733         estimate D2E/DX2                !
 ! D67   D(53,10,11,12)       -174.264          estimate D2E/DX2                !
 ! D68   D(53,10,11,28)          6.1895         estimate D2E/DX2                !
 ! D69   D(9,10,53,15)          -1.5371         estimate D2E/DX2                !
 ! D70   D(11,10,53,15)        178.5996         estimate D2E/DX2                !
 ! D71   D(10,11,12,13)         -1.9481         estimate D2E/DX2                !
 ! D72   D(10,11,12,24)        177.2996         estimate D2E/DX2                !
 ! D73   D(28,11,12,13)        177.5825         estimate D2E/DX2                !
 ! D74   D(28,11,12,24)         -3.1699         estimate D2E/DX2                !
 ! D75   D(11,12,13,14)         -1.6416         estimate D2E/DX2                !
 ! D76   D(11,12,13,27)        178.4618         estimate D2E/DX2                !
 ! D77   D(24,12,13,14)        179.118          estimate D2E/DX2                !
 ! D78   D(24,12,13,27)         -0.7785         estimate D2E/DX2                !
 ! D79   D(11,12,24,25)       -178.5888         estimate D2E/DX2                !
 ! D80   D(11,12,24,61)          1.0808         estimate D2E/DX2                !
 ! D81   D(13,12,24,25)          0.6755         estimate D2E/DX2                !
 ! D82   D(13,12,24,61)       -179.6549         estimate D2E/DX2                !
 ! D83   D(12,13,14,9)           1.8388         estimate D2E/DX2                !
 ! D84   D(12,13,14,29)       -179.975          estimate D2E/DX2                !
 ! D85   D(27,13,14,9)        -178.2641         estimate D2E/DX2                !
 ! D86   D(27,13,14,29)         -0.0779         estimate D2E/DX2                !
 ! D87   D(12,13,27,26)          0.1821         estimate D2E/DX2                !
 ! D88   D(12,13,27,64)       -179.6136         estimate D2E/DX2                !
 ! D89   D(14,13,27,26)       -179.7176         estimate D2E/DX2                !
 ! D90   D(14,13,27,64)          0.4868         estimate D2E/DX2                !
 ! D91   D(8,15,16,17)          -8.7054         estimate D2E/DX2                !
 ! D92   D(8,15,16,30)         172.6607         estimate D2E/DX2                !
 ! D93   D(53,15,16,17)        171.8371         estimate D2E/DX2                !
 ! D94   D(53,15,16,30)         -6.7968         estimate D2E/DX2                !
 ! D95   D(8,15,53,10)           5.4786         estimate D2E/DX2                !
 ! D96   D(16,15,53,10)       -175.0713         estimate D2E/DX2                !
 ! D97   D(15,16,17,18)         13.2766         estimate D2E/DX2                !
 ! D98   D(15,16,17,20)       -168.1474         estimate D2E/DX2                !
 ! D99   D(30,16,17,18)       -168.1304         estimate D2E/DX2                !
 ! D100  D(30,16,17,20)         10.4456         estimate D2E/DX2                !
 ! D101  D(16,17,18,19)         -1.6841         estimate D2E/DX2                !
 ! D102  D(16,17,18,23)        178.3027         estimate D2E/DX2                !
 ! D103  D(20,17,18,19)        179.7496         estimate D2E/DX2                !
 ! D104  D(20,17,18,23)         -0.2637         estimate D2E/DX2                !
 ! D105  D(16,17,20,21)       -179.7654         estimate D2E/DX2                !
 ! D106  D(16,17,20,76)          0.4191         estimate D2E/DX2                !
 ! D107  D(18,17,20,21)         -1.1742         estimate D2E/DX2                !
 ! D108  D(18,17,20,76)        179.0103         estimate D2E/DX2                !
 ! D109  D(17,18,19,8)         -15.0687         estimate D2E/DX2                !
 ! D110  D(17,18,19,31)        164.0374         estimate D2E/DX2                !
 ! D111  D(23,18,19,8)         164.9446         estimate D2E/DX2                !
 ! D112  D(23,18,19,31)        -15.9493         estimate D2E/DX2                !
 ! D113  D(17,18,23,22)          1.4199         estimate D2E/DX2                !
 ! D114  D(17,18,23,80)       -179.7895         estimate D2E/DX2                !
 ! D115  D(19,18,23,22)       -178.5933         estimate D2E/DX2                !
 ! D116  D(19,18,23,80)          0.1973         estimate D2E/DX2                !
 ! D117  D(8,19,31,81)          54.0268         estimate D2E/DX2                !
 ! D118  D(18,19,31,81)       -125.0386         estimate D2E/DX2                !
 ! D119  D(17,20,21,22)          1.4649         estimate D2E/DX2                !
 ! D120  D(17,20,21,77)       -178.836          estimate D2E/DX2                !
 ! D121  D(76,20,21,22)       -178.7246         estimate D2E/DX2                !
 ! D122  D(76,20,21,77)          0.9745         estimate D2E/DX2                !
 ! D123  D(20,21,22,23)         -0.3061         estimate D2E/DX2                !
 ! D124  D(20,21,22,79)        179.7675         estimate D2E/DX2                !
 ! D125  D(77,21,22,23)        179.9955         estimate D2E/DX2                !
 ! D126  D(77,21,22,79)          0.0691         estimate D2E/DX2                !
 ! D127  D(21,22,23,18)         -1.1433         estimate D2E/DX2                !
 ! D128  D(21,22,23,80)       -179.9048         estimate D2E/DX2                !
 ! D129  D(79,22,23,18)        178.7832         estimate D2E/DX2                !
 ! D130  D(79,22,23,80)          0.0217         estimate D2E/DX2                !
 ! D131  D(12,24,25,26)          0.0318         estimate D2E/DX2                !
 ! D132  D(12,24,25,62)        179.7192         estimate D2E/DX2                !
 ! D133  D(61,24,25,26)       -179.6284         estimate D2E/DX2                !
 ! D134  D(61,24,25,62)          0.0591         estimate D2E/DX2                !
 ! D135  D(24,25,26,27)         -0.6357         estimate D2E/DX2                !
 ! D136  D(24,25,26,63)        179.4386         estimate D2E/DX2                !
 ! D137  D(62,25,26,27)        179.678          estimate D2E/DX2                !
 ! D138  D(62,25,26,63)         -0.2477         estimate D2E/DX2                !
 ! D139  D(25,26,27,13)          0.5269         estimate D2E/DX2                !
 ! D140  D(25,26,27,64)       -179.6831         estimate D2E/DX2                !
 ! D141  D(63,26,27,13)       -179.5472         estimate D2E/DX2                !
 ! D142  D(63,26,27,64)          0.2429         estimate D2E/DX2                !
 ! D143  D(19,31,81,57)         86.049          estimate D2E/DX2                !
 ! D144  D(3,32,33,44)         116.2296         estimate D2E/DX2                !
 ! D145  D(3,32,33,45)         -64.8612         estimate D2E/DX2                !
 ! D146  D(34,32,33,44)         -5.6674         estimate D2E/DX2                !
 ! D147  D(34,32,33,45)        173.2418         estimate D2E/DX2                !
 ! D148  D(60,32,33,44)       -125.6385         estimate D2E/DX2                !
 ! D149  D(60,32,33,45)         53.2707         estimate D2E/DX2                !
 ! D150  D(3,32,34,35)        -120.1214         estimate D2E/DX2                !
 ! D151  D(3,32,34,36)          54.326          estimate D2E/DX2                !
 ! D152  D(33,32,34,35)          2.0595         estimate D2E/DX2                !
 ! D153  D(33,32,34,36)        176.507          estimate D2E/DX2                !
 ! D154  D(60,32,34,35)        121.6218         estimate D2E/DX2                !
 ! D155  D(60,32,34,36)        -63.9308         estimate D2E/DX2                !
 ! D156  D(32,33,44,48)       -174.5733         estimate D2E/DX2                !
 ! D157  D(32,33,44,54)          4.5953         estimate D2E/DX2                !
 ! D158  D(45,33,44,48)          6.5747         estimate D2E/DX2                !
 ! D159  D(45,33,44,54)       -174.2567         estimate D2E/DX2                !
 ! D160  D(32,33,45,46)        179.1442         estimate D2E/DX2                !
 ! D161  D(32,33,45,55)         -2.5105         estimate D2E/DX2                !
 ! D162  D(44,33,45,46)         -1.9444         estimate D2E/DX2                !
 ! D163  D(44,33,45,55)        176.4009         estimate D2E/DX2                !
 ! D164  D(32,34,35,39)       -177.5641         estimate D2E/DX2                !
 ! D165  D(32,34,35,54)          3.0472         estimate D2E/DX2                !
 ! D166  D(36,34,35,39)          8.0604         estimate D2E/DX2                !
 ! D167  D(36,34,35,54)       -171.3283         estimate D2E/DX2                !
 ! D168  D(32,34,36,37)        164.5029         estimate D2E/DX2                !
 ! D169  D(32,34,36,57)        -16.4477         estimate D2E/DX2                !
 ! D170  D(35,34,36,37)        -20.9983         estimate D2E/DX2                !
 ! D171  D(35,34,36,57)        158.051          estimate D2E/DX2                !
 ! D172  D(34,35,39,38)          9.0941         estimate D2E/DX2                !
 ! D173  D(34,35,39,58)       -172.6796         estimate D2E/DX2                !
 ! D174  D(54,35,39,38)       -171.4531         estimate D2E/DX2                !
 ! D175  D(54,35,39,58)          6.7732         estimate D2E/DX2                !
 ! D176  D(34,35,54,44)         -4.8018         estimate D2E/DX2                !
 ! D177  D(39,35,54,44)        175.7535         estimate D2E/DX2                !
 ! D178  D(34,36,37,38)         16.7823         estimate D2E/DX2                !
 ! D179  D(34,36,37,40)       -163.3925         estimate D2E/DX2                !
 ! D180  D(57,36,37,38)       -162.2724         estimate D2E/DX2                !
 ! D181  D(57,36,37,40)         17.5528         estimate D2E/DX2                !
 ! D182  D(34,36,57,81)        -55.9939         estimate D2E/DX2                !
 ! D183  D(37,36,57,81)        123.0148         estimate D2E/DX2                !
 ! D184  D(36,37,38,39)          0.5334         estimate D2E/DX2                !
 ! D185  D(36,37,38,43)        179.5228         estimate D2E/DX2                !
 ! D186  D(40,37,38,39)       -179.2928         estimate D2E/DX2                !
 ! D187  D(40,37,38,43)         -0.3034         estimate D2E/DX2                !
 ! D188  D(36,37,40,41)        179.0928         estimate D2E/DX2                !
 ! D189  D(36,37,40,69)          0.1672         estimate D2E/DX2                !
 ! D190  D(38,37,40,41)         -1.0796         estimate D2E/DX2                !
 ! D191  D(38,37,40,69)        179.9947         estimate D2E/DX2                !
 ! D192  D(37,38,39,35)        -13.1765         estimate D2E/DX2                !
 ! D193  D(37,38,39,58)        168.6516         estimate D2E/DX2                !
 ! D194  D(43,38,39,35)        167.8285         estimate D2E/DX2                !
 ! D195  D(43,38,39,58)        -10.3434         estimate D2E/DX2                !
 ! D196  D(37,38,43,42)          1.4688         estimate D2E/DX2                !
 ! D197  D(37,38,43,78)       -178.7536         estimate D2E/DX2                !
 ! D198  D(39,38,43,42)       -179.5254         estimate D2E/DX2                !
 ! D199  D(39,38,43,78)          0.2522         estimate D2E/DX2                !
 ! D200  D(37,40,41,42)          1.3034         estimate D2E/DX2                !
 ! D201  D(37,40,41,70)       -178.6522         estimate D2E/DX2                !
 ! D202  D(69,40,41,42)       -179.7951         estimate D2E/DX2                !
 ! D203  D(69,40,41,70)          0.2493         estimate D2E/DX2                !
 ! D204  D(40,41,42,43)         -0.1318         estimate D2E/DX2                !
 ! D205  D(40,41,42,71)        179.7268         estimate D2E/DX2                !
 ! D206  D(70,41,42,43)        179.8237         estimate D2E/DX2                !
 ! D207  D(70,41,42,71)         -0.3177         estimate D2E/DX2                !
 ! D208  D(41,42,43,38)         -1.2566         estimate D2E/DX2                !
 ! D209  D(41,42,43,78)        178.9715         estimate D2E/DX2                !
 ! D210  D(71,42,43,38)        178.8846         estimate D2E/DX2                !
 ! D211  D(71,42,43,78)         -0.8873         estimate D2E/DX2                !
 ! D212  D(33,44,48,47)         -6.5863         estimate D2E/DX2                !
 ! D213  D(33,44,48,56)        172.6848         estimate D2E/DX2                !
 ! D214  D(54,44,48,47)        174.1681         estimate D2E/DX2                !
 ! D215  D(54,44,48,56)         -6.5607         estimate D2E/DX2                !
 ! D216  D(33,44,54,35)          0.8565         estimate D2E/DX2                !
 ! D217  D(48,44,54,35)       -179.8953         estimate D2E/DX2                !
 ! D218  D(33,45,46,47)         -2.298          estimate D2E/DX2                !
 ! D219  D(33,45,46,49)        178.0457         estimate D2E/DX2                !
 ! D220  D(55,45,46,47)        179.3998         estimate D2E/DX2                !
 ! D221  D(55,45,46,49)         -0.2565         estimate D2E/DX2                !
 ! D222  D(45,46,47,48)          1.9638         estimate D2E/DX2                !
 ! D223  D(45,46,47,52)       -178.6821         estimate D2E/DX2                !
 ! D224  D(49,46,47,48)       -178.3818         estimate D2E/DX2                !
 ! D225  D(49,46,47,52)          0.9723         estimate D2E/DX2                !
 ! D226  D(45,46,49,50)        179.3774         estimate D2E/DX2                !
 ! D227  D(45,46,49,65)         -0.7716         estimate D2E/DX2                !
 ! D228  D(47,46,49,50)         -0.2871         estimate D2E/DX2                !
 ! D229  D(47,46,49,65)        179.5639         estimate D2E/DX2                !
 ! D230  D(46,47,48,44)          2.1893         estimate D2E/DX2                !
 ! D231  D(46,47,48,56)       -177.0565         estimate D2E/DX2                !
 ! D232  D(52,47,48,44)       -177.1706         estimate D2E/DX2                !
 ! D233  D(52,47,48,56)          3.5836         estimate D2E/DX2                !
 ! D234  D(46,47,52,51)         -0.8054         estimate D2E/DX2                !
 ! D235  D(46,47,52,68)        179.5067         estimate D2E/DX2                !
 ! D236  D(48,47,52,51)        178.569          estimate D2E/DX2                !
 ! D237  D(48,47,52,68)         -1.1189         estimate D2E/DX2                !
 ! D238  D(46,49,50,51)         -0.5765         estimate D2E/DX2                !
 ! D239  D(46,49,50,66)        179.532          estimate D2E/DX2                !
 ! D240  D(65,49,50,51)        179.5766         estimate D2E/DX2                !
 ! D241  D(65,49,50,66)         -0.315          estimate D2E/DX2                !
 ! D242  D(49,50,51,52)          0.751          estimate D2E/DX2                !
 ! D243  D(49,50,51,67)       -179.5345         estimate D2E/DX2                !
 ! D244  D(66,50,51,52)       -179.3578         estimate D2E/DX2                !
 ! D245  D(66,50,51,67)          0.3566         estimate D2E/DX2                !
 ! D246  D(50,51,52,47)         -0.0564         estimate D2E/DX2                !
 ! D247  D(50,51,52,68)        179.6227         estimate D2E/DX2                !
 ! D248  D(67,51,52,47)       -179.772          estimate D2E/DX2                !
 ! D249  D(67,51,52,68)         -0.0929         estimate D2E/DX2                !
 ! D250  D(36,57,81,31)        -82.6761         estimate D2E/DX2                !
 --------------------------------------------------------------------------------
 Trust Radius=3.00D-01 FncErr=1.00D-07 GrdErr=1.00D-06 EigMax=2.50D+02 EigMin=1.00D-04
 Number of steps in this run=    486 maximum allowed number of steps=    486.
 GradGradGradGradGradGradGradGradGradGradGradGradGradGradGradGradGradGrad

 Leave Link  103 at Tue Oct 24 17:40:26 2023, MaxMem=  6710886400 cpu:               4.3 elap:               0.1
 (Enter /soft/gaussian/16-c.01/g16/l202.exe)
 Stoichiometry    C48H22LiO10(1+)
 Framework group  C1[X(C48H22LiO10)]
 Deg. of freedom   237
 Full point group                 C1      NOp   1
 Largest Abelian subgroup         C1      NOp   1
 Largest concise Abelian subgroup C1      NOp   1
                         Standard orientation:                         
 ---------------------------------------------------------------------
 Center     Atomic      Atomic             Coordinates (Angstroms)
 Number     Number       Type             X           Y           Z
 ---------------------------------------------------------------------
      1          6           0        0.683628   -0.059945    0.103131
      2          6           0       -0.699187   -0.097855    0.099912
      3          6           0       -1.389741   -0.288589   -1.089640
      4          6           0       -0.680819   -0.536734   -2.259432
      5          6           0        0.700119   -0.497454   -2.256706
      6          6           0        1.389254   -0.210628   -1.083561
      7          6           0        2.886830   -0.004318   -1.103040
      8          6           0        3.248770    1.283030   -0.390333
      9          6           0        3.596580   -1.174642   -0.458046
     10          6           0        4.321288   -1.032371    0.665772
     11          6           0        4.958677   -2.175609    1.395001
     12          6           0        4.848385   -3.476510    0.712729
     13          6           0        4.159050   -3.617878   -0.501924
     14          6           0        3.477021   -2.479910   -1.144314
     15          6           0        4.060736    1.274803    0.697714
     16          6           0        4.495671    2.526754    1.406906
     17          6           0        4.136684    3.778225    0.710263
     18          6           0        3.219158    3.774796   -0.351822
     19          6           0        2.619676    2.519016   -0.821880
     20          6           0        4.697261    4.976863    1.137346
     21          6           0        4.371468    6.166506    0.501598
     22          6           0        3.460457    6.167106   -0.544394
     23          6           0        2.877808    4.980665   -0.962109
     24          6           0        5.461263   -4.586001    1.289158
     25          6           0        5.405896   -5.821575    0.664450
     26          6           0        4.737323   -5.959009   -0.543471
     27          6           0        4.113138   -4.864812   -1.120187
     28          8           0        5.503920   -2.010957    2.459950
     29          8           0        2.873266   -2.576556   -2.195385
     30          8           0        5.107842    2.482337    2.443274
     31          8           0        1.609224    2.518044   -1.542509
     32          6           0       -2.896025   -0.164430   -1.113835
     33          6           0       -3.537908   -1.352703   -0.432821
     34          6           0       -3.322995    1.120813   -0.434309
     35          6           0       -4.133716    1.099154    0.654835
     36          6           0       -2.752955    2.375856   -0.892028
     37          6           0       -3.430215    3.608825   -0.468260
     38          6           0       -4.339334    3.595446    0.600992
     39          6           0       -4.629280    2.347108    1.333642
     40          6           0       -3.168844    4.808245   -1.128467
     41          6           0       -3.817067    5.973219   -0.748003
     42          6           0       -4.711787    5.957936    0.312062
     43          6           0       -4.962696    4.774483    0.993547
     44          6           0       -4.269303   -1.219349    0.687544
     45          6           0       -3.339116   -2.668753   -1.079301
     46          6           0       -3.950312   -3.825480   -0.400754
     47          6           0       -4.638330   -3.689548    0.815477
     48          6           0       -4.824320   -2.377470    1.459542
     49          6           0       -3.832781   -5.085240   -0.982871
     50          6           0       -4.383036   -6.198053   -0.368003
     51          6           0       -5.047353   -6.065605    0.843009
     52          6           0       -5.174714   -4.817280    1.431307
     53          8           0        4.549937    0.168394    1.262011
     54          8           0       -4.568306   -0.015357    1.246967
     55          8           0       -2.729040   -2.760163   -2.127223
     56          8           0       -5.363187   -2.215679    2.528583
     57          8           0       -1.731670    2.411681   -1.593161
     58          8           0       -5.238800    2.298390    2.371457
     59          1           0        3.199905    0.061092   -2.153264
     60          1           0       -3.213510   -0.145344   -2.164399
     61          1           0        5.981699   -4.455756    2.227213
     62          1           0        5.888246   -6.673939    1.117719
     63          1           0        4.700621   -6.918681   -1.036461
     64          1           0        3.583540   -4.954473   -2.057946
     65          1           0       -3.305985   -5.170176   -1.922796
     66          1           0       -4.291550   -7.168017   -0.833365
     67          1           0       -5.470149   -6.932330    1.327272
     68          1           0       -5.693531   -4.691735    2.371041
     69          1           0       -2.466601    4.806226   -1.950623
     70          1           0       -3.624106    6.893436   -1.279931
     71          1           0       -5.212528    6.866738    0.610082
     72          1           0        1.210935    0.094369    1.035191
     73          1           0       -1.238248    0.027411    1.029413
     74          1           0       -1.213987   -0.788459   -3.164498
     75          1           0        1.249733   -0.718443   -3.159463
     76          1           0        5.387735    4.956884    1.966017
     77          1           0        4.824468    7.091231    0.825767
     78          1           0       -5.642610    4.745781    1.830865
     79          1           0        3.204635    7.093401   -1.036039
     80          1           0        2.168205    4.965850   -1.775980
     81          3           0       -0.032749    2.015755   -1.885361
 ---------------------------------------------------------------------
 Rotational constants (GHZ):           0.0483663           0.0384853           0.0241008
 Leave Link  202 at Tue Oct 24 17:40:26 2023, MaxMem=  6710886400 cpu:               1.8 elap:               0.1
 (Enter /soft/gaussian/16-c.01/g16/l301.exe)
 Standard basis: 6-31+G(d,p) (6D, 7F)
 Ernie: Thresh=  0.10000D-02 Tol=  0.10000D-05 Strict=F.
 There are  1231 symmetry adapted cartesian basis functions of A   symmetry.
 There are  1231 symmetry adapted basis functions of A   symmetry.
  1231 basis functions,  2042 primitive gaussians,  1231 cartesian basis functions
   196 alpha electrons      196 beta electrons
       nuclear repulsion energy      7659.1563018665 Hartrees.
 IExCor=  402 DFT=T Ex+Corr=B3LYP ExCW=0 ScaHFX=  0.200000
 ScaDFX=  0.800000  0.720000  1.000000  0.810000 ScalE2=  1.000000  1.000000
 IRadAn=      5 IRanWt=     -1 IRanGd=            0 ICorTp=0 IEmpDi=131
 NAtoms=   81 NActive=   81 NUniq=   81 SFac= 1.00D+00 NAtFMM=   60 NAOKFM=T Big=T
 Integral buffers will be    131072 words long.
 Raffenetti 2 integral format.
 Two-electron integral symmetry is turned on.
 R6Disp:  Grimme-D3 Dispersion energy=       -0.1044649142 Hartrees.
 Nuclear repulsion after empirical dispersion term =     7659.0518369522 Hartrees.
 Leave Link  301 at Tue Oct 24 17:40:27 2023, MaxMem=  6710886400 cpu:               8.9 elap:               0.2
 (Enter /soft/gaussian/16-c.01/g16/l302.exe)
 NPDir=0 NMtPBC=     1 NCelOv=     1 NCel=       1 NClECP=     1 NCelD=      1
         NCelK=      1 NCelE2=     1 NClLst=     1 CellRange=     0.0.
 One-electron integrals computed using PRISM.
 One-electron integral symmetry used in STVInt
 NBasis=  1231 RedAO= T EigKep=  1.09D-06  NBF=  1231
 NBsUse=  1205 1.00D-06 EigRej=  9.36D-07 NBFU=  1205
 Precomputing XC quadrature grid using
 IXCGrd= 4 IRadAn=           5 IRanWt=          -1 IRanGd=           0 AccXCQ= 0.00D+00.
 Generated NRdTot=       0 NPtTot=           0 NUsed=           0 NTot=          32
 NSgBfM=  1171  1168  1169  1170  1171 MxSgAt=    81 MxSgA2=    81.
 Leave Link  302 at Tue Oct 24 17:40:37 2023, MaxMem=  6710886400 cpu:             627.5 elap:               9.9
 (Enter /soft/gaussian/16-c.01/g16/l303.exe)
 DipDrv:  MaxL=1.
 Leave Link  303 at Tue Oct 24 17:40:38 2023, MaxMem=  6710886400 cpu:              40.9 elap:               0.8
 (Enter /soft/gaussian/16-c.01/g16/l401.exe)
 ExpMin= 7.40D-03 ExpMax= 5.48D+03 ExpMxC= 8.25D+02 IAcc=3 IRadAn=         5 AccDes= 0.00D+00
 Harris functional with IExCor=  402 and IRadAn=       5 diagonalized for initial guess.
 HarFok:  IExCor=  402 AccDes= 0.00D+00 IRadAn=         5 IDoV= 1 UseB2=F ITyADJ=14
 ICtDFT=  3500011 ScaDFX=  1.000000  1.000000  1.000000  1.000000
 FoFCou: FMM=F IPFlag=           0 FMFlag=      100000 FMFlg1=        2001
         NFxFlg=           0 DoJE=T BraDBF=F KetDBF=T FulRan=T
         wScrn=  0.000000 ICntrl=       500 IOpCl=  0 I1Cent=   200000004 NGrid=           0
         NMat0=    1 NMatS0=      1 NMatT0=    0 NMatD0=    1 NMtDS0=    0 NMtDT0=    0
 Petite list used in FoFCou.
 Harris En= -2602.12637542589    
 JPrj=0 DoOrth=F DoCkMO=F.
 Leave Link  401 at Tue Oct 24 17:40:53 2023, MaxMem=  6710886400 cpu:             969.9 elap:              15.2
 (Enter /soft/gaussian/16-c.01/g16/l502.exe)
 Integral symmetry usage will be decided dynamically.
 Closed shell SCF:
 Using DIIS extrapolation, IDIIS=    10.
 NGot=  6710886400 LenX=  6707763376 LenY=  6706246784
 Requested convergence on RMS density matrix=1.00D-08 within 128 cycles.
 Requested convergence on MAX density matrix=1.00D-06.
 Requested convergence on             energy=1.00D-06.
 Level shift goal  0.100 maximum shift  0.100.
 No special actions if energy rises.
 Dynamic level shift is on during FON iterations.
 Fock matrices will be formed incrementally for  20 cycles.

 Cycle   1  Pass 1  IDiag  1:
 FoFJK:  IHMeth= 1 ICntrl=       0 DoSepK=F KAlg= 0 I1Cent=           0 FoldK=F
 IRaf= 790000000 NMat=       1 IRICut=       1 DoRegI=T DoRafI=F ISym2E= 0 IDoP0=0 IntGTp=1.
 FoFCou: FMM=T IPFlag=           0 FMFlag=      100000 FMFlg1=        2001
         NFxFlg=           0 DoJE=F BraDBF=F KetDBF=F FulRan=T
         wScrn=  0.000000 ICntrl=         0 IOpCl=  0 I1Cent=           0 NGrid=           0
         NMat0=    1 NMatS0=      1 NMatT0=    0 NMatD0=    1 NMtDS0=    0 NMtDT0=    0
 Symmetry not used in FoFCou.
 FMM levels:  10  Number of levels for PrismC:   9
 E= -2601.07700183530    
 DIIS: error= 1.84D-02 at cycle   1 NSaved=   1.
 NSaved= 1 IEnMin= 1 EnMin= -2601.07700183530     IErMin= 1 ErrMin= 1.84D-02
 ErrMax= 1.84D-02  0.00D+00 EMaxC= 1.00D+00 BMatC= 1.26D+00 BMatP= 1.26D+00
 IDIUse=1 WtCom= 1.00D+00 WtEn= 0.00D+00
 Coeff-Com:  0.100D+01
 Coeff:      0.100D+01
 Gap=     0.140 Goal=     0.100 Shift=    0.000
 T= 1204. Gap= 0.021 NK=0 IS=  189 IE= 1205 IFin=  199
          NO(<0.9)=   0  NV(>0.1)=   0    195.92e < EF      0.08e >EF  Err=2.8D-14
 GapD=    0.140 DampG=1.000 DampE=0.500 DampFc=0.5000 IDamp=-1.
 Damping current iteration by 5.00D-01
 RMSDP=4.65D-02 MaxDP=4.27D+00              OVMax= 3.22D-01

 Cycle   2  Pass 1  IDiag  1:
 RMSU=  2.18D-02    CP:  1.13D+00
 E= -2601.13670711913     Delta-E=       -0.059705283833 Rises=F Damp=T
 DIIS: error= 9.74D-03 at cycle   2 NSaved=   2.
 NSaved= 2 IEnMin= 2 EnMin= -2601.13670711913     IErMin= 2 ErrMin= 9.74D-03
 ErrMax= 9.74D-03  0.00D+00 EMaxC= 1.00D+00 BMatC= 4.04D-01 BMatP= 1.26D+00
 IDIUse=1 WtCom= 1.00D+00 WtEn= 0.00D+00
 Coeff-Com:  0.312D+00 0.688D+00
 Coeff:      0.312D+00 0.688D+00
 Gap=     0.146 Goal=     0.100 Shift=    0.000
 T= 1101. Gap= 0.096 NK=0 IS=    1 IE= 1205 IFin=  197
          NO(<0.9)=   0  NV(>0.1)=   0    196.00e < EF      0.00e >EF  Err=5.7D-14
 GapD=    0.146 DampG=1.000 DampE=1.000 DampFc=1.0000 IDamp=-1.
 RMSDP=2.70D-02 MaxDP=3.10D+00 DE=-5.97D-02 OVMax= 2.84D-01

 Cycle   3  Pass 1  IDiag  1:
 RMSU=  1.01D-02    CP:  7.83D-01  4.54D-01
 E= -2601.90785876343     Delta-E=       -0.771151644294 Rises=F Damp=F
 DIIS: error= 1.01D-02 at cycle   3 NSaved=   3.
 NSaved= 3 IEnMin= 3 EnMin= -2601.90785876343     IErMin= 2 ErrMin= 9.74D-03
 ErrMax= 1.01D-02  0.00D+00 EMaxC= 1.00D+00 BMatC= 2.99D-01 BMatP= 4.04D-01
 IDIUse=1 WtCom= 1.00D+00 WtEn= 0.00D+00
 Coeff-Com:  0.654D-01 0.454D+00 0.481D+00
 Coeff:      0.654D-01 0.454D+00 0.481D+00
 Gap=     0.117 Goal=     0.100 Shift=    0.000
 T=  982. Gap= 0.100 NK=3 IS=  197 IE=  209 IFin=  196
          NO(<0.9)=   0  NV(>0.1)=   0    196.00e < EF      0.00e >EF  Err=0.0D+00
 GapD=    0.117 DampG=1.000 DampE=0.500 DampFc=0.5000 IDamp=-1.
 Damping current iteration by 5.00D-01
 RMSDP=7.75D-03 MaxDP=1.01D+00 DE=-7.71D-01 OVMax= 1.36D-01

 Cycle   4  Pass 1  IDiag  1:
 RMSU=  2.84D-03    CP:  7.77D-01  4.70D-01  7.43D-01
 E= -2602.12356000228     Delta-E=       -0.215701238851 Rises=F Damp=T
 DIIS: error= 4.52D-03 at cycle   4 NSaved=   4.
 NSaved= 4 IEnMin= 4 EnMin= -2602.12356000228     IErMin= 4 ErrMin= 4.52D-03
 ErrMax= 4.52D-03  0.00D+00 EMaxC= 1.00D+00 BMatC= 5.49D-02 BMatP= 2.99D-01
 IDIUse=1 WtCom= 1.00D+00 WtEn= 0.00D+00
 Coeff-Com: -0.882D-03 0.191D+00-0.226D+00 0.104D+01
 Coeff:     -0.882D-03 0.191D+00-0.226D+00 0.104D+01
 Gap=     0.111 Goal=     0.100 Shift=    0.000
 T=  711. Gap= 0.105 NK=3 IS=  197 IE=  208 IFin=  196
          NO(<0.9)=   0  NV(>0.1)=   0    196.00e < EF      0.00e >EF  Err=0.0D+00
 GapD=    0.111 DampG=1.000 DampE=1.000 DampFc=1.0000 IDamp=-1.
 RMSDP=3.23D-03 MaxDP=2.87D-01 DE=-2.16D-01 OVMax= 5.32D-02

 Cycle   5  Pass 1  IDiag  1:
 RMSU=  1.89D-03    CP:  7.90D-01  5.10D-01  5.67D-01  1.55D+00
 E= -2602.20200337413     Delta-E=       -0.078443371853 Rises=F Damp=F
 DIIS: error= 2.43D-03 at cycle   5 NSaved=   5.
 NSaved= 5 IEnMin= 5 EnMin= -2602.20200337413     IErMin= 5 ErrMin= 2.43D-03
 ErrMax= 2.43D-03  0.00D+00 EMaxC= 1.00D+00 BMatC= 1.10D-02 BMatP= 5.49D-02
 IDIUse=1 WtCom= 1.00D+00 WtEn= 0.00D+00
 Coeff-Com: -0.103D-01 0.698D-01-0.247D+00 0.767D+00 0.421D+00
 Coeff:     -0.103D-01 0.698D-01-0.247D+00 0.767D+00 0.421D+00
 Gap=     0.106 Goal=     0.100 Shift=    0.000
 T=  496. Gap= 0.104 NK=3 IS=  197 IE=  208 IFin=  196
          NO(<0.9)=   0  NV(>0.1)=   0    196.00e < EF      0.00e >EF  Err=0.0D+00
 GapD=    0.106 DampG=1.000 DampE=1.000 DampFc=1.0000 IDamp=-1.
 RMSDP=1.27D-03 MaxDP=1.28D-01 DE=-7.84D-02 OVMax= 2.91D-02

 Cycle   6  Pass 1  IDiag  1:
 RMSU=  1.10D-03    CP:  7.84D-01  5.08D-01  5.33D-01  1.51D+00  8.04D-01
 E= -2602.21232823035     Delta-E=       -0.010324856215 Rises=F Damp=F
 DIIS: error= 4.80D-04 at cycle   6 NSaved=   6.
 NSaved= 6 IEnMin= 6 EnMin= -2602.21232823035     IErMin= 6 ErrMin= 4.80D-04
 ErrMax= 4.80D-04  0.00D+00 EMaxC= 1.00D+00 BMatC= 9.37D-04 BMatP= 1.10D-02
 IDIUse=1 WtCom= 1.00D+00 WtEn= 0.00D+00
 Coeff-Com: -0.720D-02 0.185D-01-0.120D+00 0.325D+00 0.269D+00 0.515D+00
 Coeff:     -0.720D-02 0.185D-01-0.120D+00 0.325D+00 0.269D+00 0.515D+00
 Gap=     0.106 Goal=     0.100 Shift=    0.000
 RMSDP=4.12D-04 MaxDP=4.31D-02 DE=-1.03D-02 OVMax= 6.34D-03

 Cycle   7  Pass 1  IDiag  1:
 RMSU=  2.22D-04    CP:  7.82D-01  5.04D-01  5.45D-01  1.54D+00  7.24D-01
                    CP:  7.94D-01
 E= -2602.21314059162     Delta-E=       -0.000812361272 Rises=F Damp=F
 DIIS: error= 1.29D-04 at cycle   7 NSaved=   7.
 NSaved= 7 IEnMin= 7 EnMin= -2602.21314059162     IErMin= 7 ErrMin= 1.29D-04
 ErrMax= 1.29D-04  0.00D+00 EMaxC= 1.00D+00 BMatC= 6.92D-05 BMatP= 9.37D-04
 IDIUse=1 WtCom= 1.00D+00 WtEn= 0.00D+00
 Coeff-Com: -0.357D-02 0.562D-02-0.479D-01 0.120D+00 0.121D+00 0.294D+00
 Coeff-Com:  0.512D+00
 Coeff:     -0.357D-02 0.562D-02-0.479D-01 0.120D+00 0.121D+00 0.294D+00
 Coeff:      0.512D+00
 Gap=     0.106 Goal=     0.100 Shift=    0.000
 RMSDP=1.30D-04 MaxDP=1.14D-02 DE=-8.12D-04 OVMax= 2.01D-03

 Cycle   8  Pass 1  IDiag  1:
 RMSU=  7.30D-05    CP:  7.83D-01  5.06D-01  5.44D-01  1.54D+00  7.44D-01
                    CP:  7.96D-01  7.06D-01
 E= -2602.21320641975     Delta-E=       -0.000065828131 Rises=F Damp=F
 DIIS: error= 5.57D-05 at cycle   8 NSaved=   8.
 NSaved= 8 IEnMin= 8 EnMin= -2602.21320641975     IErMin= 8 ErrMin= 5.57D-05
 ErrMax= 5.57D-05  0.00D+00 EMaxC= 1.00D+00 BMatC= 1.12D-05 BMatP= 6.92D-05
 IDIUse=1 WtCom= 1.00D+00 WtEn= 0.00D+00
 Coeff-Com: -0.150D-02 0.133D-02-0.155D-01 0.354D-01 0.449D-01 0.128D+00
 Coeff-Com:  0.333D+00 0.475D+00
 Coeff:     -0.150D-02 0.133D-02-0.155D-01 0.354D-01 0.449D-01 0.128D+00
 Coeff:      0.333D+00 0.475D+00
 Gap=     0.106 Goal=     0.100 Shift=    0.000
 RMSDP=4.18D-05 MaxDP=3.53D-03 DE=-6.58D-05 OVMax= 5.64D-04

 Cycle   9  Pass 1  IDiag  1:
 RMSU=  2.48D-05    CP:  7.83D-01  5.07D-01  5.43D-01  1.54D+00  7.49D-01
                    CP:  7.87D-01  7.47D-01  7.09D-01
 E= -2602.21321635092     Delta-E=       -0.000009931175 Rises=F Damp=F
 DIIS: error= 1.08D-05 at cycle   9 NSaved=   9.
 NSaved= 9 IEnMin= 9 EnMin= -2602.21321635092     IErMin= 9 ErrMin= 1.08D-05
 ErrMax= 1.08D-05  0.00D+00 EMaxC= 1.00D+00 BMatC= 6.99D-07 BMatP= 1.12D-05
 IDIUse=1 WtCom= 1.00D+00 WtEn= 0.00D+00
 Coeff-Com: -0.327D-03-0.343D-04-0.158D-02 0.242D-02 0.775D-02 0.282D-01
 Coeff-Com:  0.107D+00 0.237D+00 0.620D+00
 Coeff:     -0.327D-03-0.343D-04-0.158D-02 0.242D-02 0.775D-02 0.282D-01
 Coeff:      0.107D+00 0.237D+00 0.620D+00
 Gap=     0.106 Goal=     0.100 Shift=    0.000
 RMSDP=2.06D-05 MaxDP=2.13D-03 DE=-9.93D-06 OVMax= 2.30D-04

 Cycle  10  Pass 1  IDiag  1:
 RMSU=  1.31D-05    CP:  7.83D-01  5.06D-01  5.43D-01  1.54D+00  7.48D-01
                    CP:  7.96D-01  7.65D-01  7.52D-01  8.74D-01
 E= -2602.21321675722     Delta-E=       -0.000000406299 Rises=F Damp=F
 DIIS: error= 8.04D-06 at cycle  10 NSaved=  10.
 NSaved=10 IEnMin=10 EnMin= -2602.21321675722     IErMin=10 ErrMin= 8.04D-06
 ErrMax= 8.04D-06  0.00D+00 EMaxC= 1.00D+00 BMatC= 3.13D-07 BMatP= 6.99D-07
 IDIUse=1 WtCom= 1.00D+00 WtEn= 0.00D+00
 Coeff-Com:  0.398D-04-0.271D-03 0.157D-02-0.425D-02-0.210D-02-0.209D-02
 Coeff-Com:  0.176D-01 0.752D-01 0.424D+00 0.490D+00
 Coeff:      0.398D-04-0.271D-03 0.157D-02-0.425D-02-0.210D-02-0.209D-02
 Coeff:      0.176D-01 0.752D-01 0.424D+00 0.490D+00
 Gap=     0.106 Goal=     0.100 Shift=    0.000
 RMSDP=6.54D-06 MaxDP=6.59D-04 DE=-4.06D-07 OVMax= 1.52D-04

 Cycle  11  Pass 1  IDiag  1:
 RMSU=  3.83D-06    CP:  7.83D-01  5.06D-01  5.43D-01  1.54D+00  7.50D-01
                    CP:  7.98D-01  7.61D-01  7.62D-01  9.35D-01  7.91D-01
 E= -2602.21321704216     Delta-E=       -0.000000284941 Rises=F Damp=F
[...]
 001676,0.00013542,0.00081642,-0.00045802,-0.00083594,0.00423831,0.0023
 4653,-0.00269100,-0.00327125,0.00054180,-0.00891428,-0.00380773,-0.000
 79142,0.00020780,-0.00033878,-0.00022125,0.00077191,0.00483793,-0.0008
 7186,-0.00319031,0.00074590,0.00131373,-0.00525142,-0.14976720,-0.0046
 1366,-0.14646838,-0.00000041,0.00000088,0.00000302,-0.00000059,-0.0000
 0021,0.,-0.00000028,0.00000030,0.00000016,-0.00000349,0.00000047,-0.00
 000117,-0.00000442,0.00000807,0.00000258,-0.00000526,0.00000660,0.0000
 2131,-0.00057146,0.00019601,0.00011084,0.00064010,-0.00177629,0.000750
 25,0.00000921,-0.00001090,-0.00000602,-0.00001035,0.00003201,0.0000231
 1,0.00006240,0.00005473,-0.00008945,-0.00007119,-0.00005195,0.00007798
 ,-0.00012680,-0.00013086,0.00011830,0.00002410,-0.00001902,-0.00000495
 ,0.00002126,0.00004784,-0.00002857,-0.00004010,-0.00007652,0.00003856,
 -0.00003347,0.00003365,0.00013483,0.00004949,0.00001324,-0.00004195,-0
 .00001849,-0.00000476,0.00001435,0.00001162,0.00001393,-0.00001179,0.0
 0001233,-0.00006912,-0.00004114,0.00000013,-0.00005172,-0.00002330,0.0
 0000631,0.00001301,-0.00000318,0.00000228,0.00001236,0.00000469,-0.000
 01075,-0.00002796,0.00000283,0.00000297,0.00000115,-0.00000466,-0.0000
 0032,-0.00000057,0.00000024,0.00000005,-0.00000080,-0.00000057,-0.0000
 0176,0.00000344,0.00000372,0.00000163,0.00008752,-0.00001379,0.0000442
 6,0.00013413,-0.00001989,-0.00000651,0.00001971,0.00001663,0.00000456,
 0.00001527,0.,0.00017371,0.00012728,-0.00007097,0.00003606,0.00003229,
 -0.00004357,0.00000468,0.00001301,0.00000528,-0.00000457,-0.00000063,0
 .00000051,0.00000090,-0.00000040,-0.00000067,0.00000050,0.00000059,-0.
 00000047,0.00000067,0.00000079,-0.00000055,0.00000155,-0.00000007,-0.0
 0000078,-0.00000041,-0.00000151,0.00000005,0.00000028,0.00000116,0.000
 00019,0.00000047,0.00000079,-0.00000017,-0.00000035,-0.00000139,-0.000
 00023,-0.00006868,-0.00000731,-0.00005812,-0.00001139,0.00001389,0.000
 00242,0.00000472,-0.00000124,-0.00000723,-0.00000133,-0.00000354,0.000
 00037,-0.00000075,-0.00000425,0.00000602,0.00000300,-0.00000199,-0.000
 00291,-0.00000086,0.00000446,0.00000153,-0.00053075,-0.00006282,0.0003
 5372,-0.00031360,0.00012194,-0.00002845,-0.00000033,0.00000100,0.00000
 085,-0.00230085,-0.00033550,0.00225688,0.14948354,-0.00000473,0.000035
 06,0.00002245,0.00000298,0.00000011,0.00000844,-0.00001536,0.00000059,
 -0.00001163,-0.00003023,0.00000987,-0.00000324,0.00002445,0.00005202,-
 0.00003048,0.00001349,-0.00000996,-0.00001301,-0.00005115,-0.00001223,
 -0.00004876,-0.00056951,0.00046545,-0.00052756,0.00002865,0.00004765,0
 .00004053,-0.00003272,-0.00015528,-0.00007727,0.00004068,-0.00005687,0
 .00003093,-0.00000469,0.00001753,0.00000921,-0.00001385,0.00003341,-0.
 00000547,0.00001600,-0.00010271,-0.00002676,0.00032789,-0.00015619,0.0
 0036904,0.00056898,0.00168969,0.00088066,0.00166527,-0.00511102,0.0008
 3535,0.01595413,0.00628295,0.02141420,0.00183931,-0.00041268,0.0023942
 3,0.00007216,-0.00110849,0.00007354,-0.00072031,-0.00479217,-0.0020096
 1,-0.01699193,0.00414792,-0.02238225,-0.00427266,-0.05885882,-0.008263
 99,0.00000429,0.00000988,0.00000392,-0.00000247,-0.00000157,-0.0000007
 8,0.00000007,0.00000017,-0.00000249,-0.00000711,-0.00000312,-0.0000089
 6,-0.00002830,0.00002154,-0.00002861,-0.00000786,0.00003891,0.00001199
 ,0.00038441,-0.00078417,0.00048603,-0.00142417,-0.00103433,-0.00186603
 ,-0.00001124,0.00000204,-0.00000551,0.00000038,-0.00001220,0.00000808,
 0.00003613,0.00001104,-0.00004797,-0.00002434,-0.00003408,0.00001525,-
 0.00024889,0.00015281,0.00026509,0.00003639,-0.00006747,-0.00003846,-0
 .00005118,-0.00004687,0.00005763,0.00000308,0.00012231,0.00001102,0.00
 001191,-0.00005011,-0.00003521,-0.00000375,0.00007151,-0.00001175,0.00
 001984,-0.00001021,-0.00003482,-0.00001038,-0.00004707,0.00001010,0.00
 000741,0.00001726,-0.00000500,-0.00002456,-0.00002092,0.00001597,0.000
 00571,0.00001072,-0.00000582,0.00000013,0.00000700,0.00000409,-0.00002
 447,-0.00002573,0.00001474,0.00000191,0.00000031,-0.00000206,0.0000003
 9,-0.00000166,0.,0.00000087,-0.00000162,-0.00000148,-0.00000034,0.0000
 0417,0.00000261,-0.00024480,0.00035468,-0.00026135,0.00002336,0.000013
 09,-0.00002095,0.00002738,0.00001258,-0.00001064,0.00001494,0.00000621
 ,-0.00001365,0.00043052,-0.00005919,-0.00020104,-0.00000265,-0.0000424
 6,-0.00000037,0.00002227,-0.00004383,-0.00000836,0.00000062,-0.0000050
 5,-0.00000034,0.00000064,-0.00000132,-0.00000032,-0.00000065,0.0000017
 9,-0.00000027,-0.00000026,0.00000215,0.00000020,0.00000172,-0.00000375
 ,-0.00000009,-0.00000167,-0.00000160,-0.00000065,-0.00000045,0.0000008
 7,0.00000004,0.00000005,0.00000086,-0.00000042,-0.00000070,-0.00000059
 ,-0.00000032,0.00000873,0.00008423,0.00002551,0.00003284,-0.00003644,-
 0.00000355,0.00000293,0.00000009,-0.00000294,-0.00000445,-0.00000186,0
 .00000412,0.00000302,-0.00000278,-0.00000387,-0.00000244,-0.00000459,0
 .00000132,0.00000325,-0.00001811,-0.00000509,-0.00004637,0.00011960,0.
 00004480,-0.00079821,0.00011806,-0.00104718,0.00000012,-0.00000255,0.0
 0000025,-0.00003938,0.00073216,0.00038838,0.00459582,0.05903059,0.0000
 0296,-0.00001750,-0.00000761,0.00000570,-0.00001488,-0.00000090,-0.000
 00620,0.00000206,0.00000280,0.00001236,-0.00000108,0.00000286,0.000003
 49,0.00001304,-0.00000470,-0.00001698,0.00000495,0.00000671,-0.0000380
 1,-0.00001238,0.00001326,0.00005363,0.00004467,0.00012915,0.00001328,0
 .00001579,0.00001899,-0.00001456,-0.00000754,-0.00000369,-0.00000668,-
 0.00000047,-0.00000261,-0.00000180,0.00000258,-0.00000010,0.00000350,0
 .00000020,-0.00000189,-0.00001797,-0.00000194,0.00000459,0.00006143,0.
 00011052,-0.00012611,-0.00075555,-0.00086150,0.00034522,-0.00277604,0.
 00177729,0.00300884,-0.00715250,-0.00046685,-0.00591013,0.00043672,-0.
 00054894,-0.00293584,0.00069939,-0.00007716,-0.00003439,-0.00302447,-0
 .00222330,0.00294380,-0.00698534,0.00163359,-0.00424290,-0.14723948,-0
 .00754799,-0.23386951,0.00000144,0.00000099,0.00000013,-0.00000017,-0.
 00000045,-0.00000071,0.00000079,-0.00000072,0.00000100,0.00000064,0.00
 000287,-0.00000078,0.00000586,0.00000478,0.00000531,0.00001233,0.00000
 265,-0.00000224,0.00017817,0.00030495,-0.00040326,0.00110929,-0.002051
 88,0.00088760,-0.00000856,0.00001201,0.00000910,0.00001289,-0.00003642
 ,-0.00002601,-0.00004842,-0.00005616,0.00008278,0.00007477,0.00005228,
 -0.00007922,0.00007800,0.00020746,-0.00003045,0.00001597,0.00000625,-0
 .00005224,-0.00003284,-0.00005419,0.00004530,0.00005244,0.00011622,-0.
 00004413,-0.00001591,-0.00003493,-0.00010578,-0.00004740,-0.00001195,0
 .00000884,0.00003185,-0.00000557,-0.00003782,-0.00001172,-0.00003060,0
 .00001399,-0.00001257,0.00007664,0.00004477,-0.00000172,0.00005402,0.0
 0002759,-0.00000630,-0.00001228,0.00000175,-0.00000285,-0.00001396,-0.
 00000344,0.00000924,0.00002791,-0.00000071,-0.00000409,-0.00000132,0.0
 0000416,0.00000077,0.00000016,0.00000033,-0.00000026,0.00000046,0.0000
 0073,0.00000186,-0.00000320,-0.00000397,0.00002926,-0.00001396,0.00008
 033,-0.00004374,-0.00014293,0.00001424,0.00000915,-0.00001976,-0.00002
 032,-0.00000331,-0.00001626,-0.00000177,-0.00008428,-0.00012337,-0.000
 07261,-0.00004246,-0.00004552,0.00004866,-0.00000017,0.00001707,0.0000
 1146,0.00000426,-0.00000163,-0.00000111,-0.00000054,-0.00000068,0.0000
 0031,-0.00000055,-0.00000002,0.00000026,-0.00000060,-0.00000010,0.0000
 0045,-0.00000099,-0.00000020,0.00000070,0.00000031,0.00000138,-0.00000
 018,-0.00000034,-0.00000111,-0.00000019,-0.00000051,-0.00000074,0.0000
 0008,0.00000025,0.00000148,0.00000010,0.00005759,0.00002481,0.00012466
 ,0.00002696,-0.00002685,0.00001112,-0.00000121,0.00000138,0.00000508,-
 0.00000399,0.00000408,0.00000265,0.00000248,0.00000795,-0.00000895,-0.
 00000282,-0.00000226,0.00000278,0.00000107,-0.00000445,-0.00000178,0.0
 0035252,0.00001883,-0.00032696,-0.00009642,0.00019146,-0.00040626,0.00
 000107,-0.00000171,-0.00000119,0.00228075,-0.00003256,-0.00100875,0.16
 295528,0.00965510,0.24160471,0.00031740,-0.00061507,-0.00068685,0.0003
 2050,0.00061212,0.00069873,-0.00068790,-0.00048607,0.00095414,0.001097
 37,0.00079361,-0.00116702,0.00110014,-0.00081971,0.00116174,-0.0006499
 6,0.00048537,-0.00095654,-0.00018590,0.00082726,-0.00020984,0.00283302
 ,-0.00205360,0.00350888,-0.00036970,-0.00092702,-0.00042506,0.00033707
 ,0.00207588,0.00106517,-0.00017420,0.00061937,-0.00016381,0.00005429,-
 0.00028900,-0.00006954,0.00014432,-0.00030770,0.00003584,0.00015146,0.
 00134287,0.00063798,-0.00240593,0.00198805,-0.00292711,-0.00053895,-0.
 00068528,-0.00124056,-0.00076002,-0.00013387,-0.00087172,0.00161044,0.
 00234600,0.00199946,-0.01280600,-0.00090739,-0.01101158,-0.00005580,0.
 00134792,0.00009284,0.00049132,-0.00037934,0.00063955,-0.00002215,-0.0
 0042862,0.00003914,0.00031219,-0.00010662,0.00046923,-0.00005131,-0.00
 007934,-0.00007994,0.00000314,0.00000107,0.00001129,-0.00000514,-0.000
 00405,0.00000886,0.00005590,-0.00001047,0.00011255,0.00008721,-0.00035
 648,0.00006814,-0.00038469,-0.00046366,-0.00038594,0.00046958,0.000107
 04,0.00081826,-0.02914751,-0.01007512,-0.00378183,-0.00020733,-0.00082
 273,0.00020898,-0.00036248,0.00092149,0.00042348,0.00285245,0.00202117
 ,-0.00346255,-0.00242940,-0.00196578,0.00289950,-0.01283431,0.00103774
 ,0.01091389,0.00159339,-0.00235874,-0.00199257,-0.00076383,0.00013455,
 0.00086750,-0.00053794,0.00070297,0.00123498,0.00032091,0.00010347,-0.
 00047452,-0.00002047,0.00042734,-0.00003646,0.00049778,0.00037476,-0.0
 0063611,-0.00006835,-0.00134528,-0.00009153,0.00032414,-0.00206038,-0.
 00105893,0.00013567,-0.00134364,-0.00063140,0.00014820,0.00030798,-0.0
 0003604,0.00005664,0.00028902,0.00007110,-0.00018634,-0.00062280,0.000
 16504,0.00005696,0.00001024,-0.00011247,-0.00000494,0.00000368,-0.0000
 0893,0.00000327,-0.00000142,-0.00001162,-0.00005100,0.00008040,0.00008
 000,0.00150598,-0.00417465,0.00124064,0.00154453,0.00413945,-0.0012275
 7,-0.00037424,0.00046841,0.00038018,0.00009390,0.00035603,-0.00007038,
 -0.02898201,0.01032373,0.00364799,0.00047155,-0.00011649,-0.00081357,-
 0.00037903,0.00023958,0.00010867,-0.00037921,-0.00023627,-0.00011130,0
 .00000107,0.00003047,-0.00000025,0.00001513,-0.00001669,-0.00000188,0.
 00001461,-0.00002366,-0.00000714,0.00000548,0.00003680,-0.00001369,0.0
 0000472,-0.00003716,0.00001358,0.00001471,0.00002367,0.00000720,0.0000
 1526,0.00001666,0.00000187,0.00000066,-0.00003054,0.00000020,0.0001286
 8,0.00050958,0.00009010,0.00003682,-0.00013508,0.00003815,0.00004711,-
 0.00002695,-0.00002695,-0.00000734,0.00004971,-0.00011353,-0.00000891,
 -0.00004837,0.00011075,-0.00023009,-0.00061895,-0.00025956,-0.00022475
 ,0.00062074,0.00025865,0.00002658,0.00003325,-0.00000081,0.00004755,0.
 00002649,0.00002761,0.00002625,-0.00003316,0.00000092,0.00003806,0.000
 13434,-0.00003840,0.00012167,-0.00051690,-0.00008942,0.07676208,-0.000
 26757,-0.00047373,0.00029784,0.00025858,-0.00048187,0.00029210,-0.0025
 8072,-0.00027180,0.00095977,-0.00185819,-0.00104276,-0.00119747,0.0018
 4622,-0.00105829,-0.00119957,0.00257710,-0.00029948,0.00098116,0.00102
 017,0.00037856,0.00013616,0.00177179,-0.00091914,0.00328896,-0.0001493
 3,-0.00095111,-0.00016451,0.00000688,0.00208844,0.00072708,0.00050045,
 -0.00041113,0.00026857,0.00003503,0.00003578,0.00007700,-0.00006757,0.
 00009244,-0.00011002,0.00070452,0.00024679,0.00083259,-0.00138140,0.00
 037425,-0.00163948,-0.00022019,0.00122674,-0.00037438,-0.00006716,-0.0
 0069062,-0.00012058,0.00055686,0.00037533,-0.00011289,-0.00416410,0.00
 083811,-0.00427047,0.00006555,0.00035987,0.00016249,0.00009062,-0.0000
 8354,0.00014758,0.00024644,-0.00021873,0.00020591,-0.00034084,-0.00001
 626,-0.00062911,-0.00002139,0.00004815,0.00001325,-0.00001191,-0.00003
 296,-0.00003247,0.00001006,-0.00003792,0.00000671,-0.00002851,0.000009
 13,-0.00002435,-0.00028264,-0.00001445,-0.00030816,-0.00084555,0.00007
 124,-0.00057668,0.00020358,-0.00051111,0.00028244,-0.00693307,-0.00316
 937,-0.00062153,-0.00101552,0.00039577,0.00012898,0.00014476,-0.000961
 38,-0.00016839,-0.00182676,-0.00092272,0.00331243,0.00141725,0.0003810
 2,-0.00165981,0.00431590,0.00078826,-0.00435220,-0.00056822,0.00040385
 ,-0.00009541,0.00006902,-0.00069228,-0.00012893,0.00023863,0.00121739,
 -0.00038471,0.00034046,-0.00002026,-0.00062178,-0.00024895,-0.00022048
 ,0.00020468,-0.00009718,-0.00008655,0.00015332,-0.00006246,0.00037371,
 0.00016299,0.00000573,0.00210826,0.00073839,-0.00070792,0.00026601,0.0
 0083514,0.00006766,0.00008898,-0.00010931,-0.00003565,0.00003333,0.000
 07617,-0.00050397,-0.00040062,0.00026413,0.00002816,0.00000877,-0.0000
 2312,-0.00001043,-0.00003783,0.00000670,0.00001172,-0.00003304,-0.0000
 3228,0.00002227,0.00004714,0.00001263,0.00084966,-0.00265156,0.0003579
 5,-0.00089127,-0.00268389,0.00036411,0.00085289,0.00005894,-0.00057596
 ,0.00028325,-0.00002039,-0.00030600,0.00717376,-0.00333857,-0.00062201
 ,-0.00021425,-0.00050797,0.00028893,-0.00010787,-0.00004029,-0.0000682
 1,0.00011119,-0.00003922,-0.00006669,0.00000730,-0.00000067,-0.0000035
 3,-0.00000023,0.00000810,-0.00000724,0.00000610,0.00000926,0.00000006,
 0.00002950,-0.00002984,-0.00001149,-0.00002977,-0.00002921,-0.00001179
 ,-0.00000616,0.00000907,-0.00000004,0.00000020,0.00000794,-0.00000724,
 -0.00000729,-0.00000031,-0.00000358,0.00030446,-0.00059393,0.00013156,
 0.00003061,-0.00002298,-0.00002246,-0.00002634,-0.00000222,0.00004643,
 0.00005184,0.00018398,-0.00031971,-0.00004838,0.00018498,-0.00032112,-
 0.00035224,-0.00059373,-0.00009209,0.00034894,-0.00060249,-0.00009269,
 -0.00000409,0.00003111,-0.00000494,0.00002564,-0.00000270,0.00004635,0
 .00000414,0.00003139,-0.00000493,-0.00003107,-0.00002404,-0.00002226,-
 0.00031248,-0.00058717,0.00013139,-0.00030626,0.01304848,-0.00053052,-
 0.00090774,-0.00131766,0.00053016,-0.00090913,-0.00131115,0.00070610,0
 .00077767,0.00131690,-0.00019783,0.00151720,0.00001533,0.00021810,0.00
 151015,0.00002284,-0.00070870,0.00078665,0.00130840,-0.00040523,0.0001
 4916,0.00032144,0.00000125,-0.00038230,0.00042102,-0.00004125,-0.00016
 015,-0.00033626,0.00011899,0.00050382,0.00033733,-0.00013897,0.0002265
 3,0.00002093,0.00002394,-0.00010029,-0.00003175,0.00000952,-0.00007977
 ,0.00000428,0.00001372,0.00040343,0.00032594,-0.00059942,0.00062215,-0
 .00059417,-0.00021702,-0.00030611,-0.00021721,-0.00026411,-0.00010806,
 -0.00027627,-0.00026730,0.00045385,0.00018806,-0.00490537,-0.00106352,
 -0.00292213,-0.00003036,0.00032318,-0.00006512,0.00011192,-0.00012060,
 0.00016369,-0.00001569,-0.00012710,-0.00013545,0.00034984,-0.00002133,
 0.00023443,-0.00001761,-0.00000967,-0.00003039,0.00000140,-0.00000154,
 -0.00000324,0.00000111,0.00000253,-0.00000818,0.00003348,-0.00000575,0
 .00003698,0.00005936,-0.00010981,-0.00001794,-0.00001415,-0.00011640,-
 0.00031846,0.00013715,0.00007386,0.00013855,-0.00641903,-0.00217279,-0
 .00462320,0.00040389,0.00014129,0.00032522,0.00003969,-0.00015580,-0.0
 0033409,0.00000541,-0.00037290,0.00040438,0.00059672,0.00060688,-0.000
 57644,0.00484514,-0.00110420,-0.00284275,0.00027797,0.00044037,0.00018
 070,0.00026096,-0.00010972,-0.00026999,0.00021259,-0.00030451,-0.00020
 997,-0.00034953,-0.00001769,0.00022995,0.00001511,-0.00012515,-0.00013
 541,-0.00011138,-0.00011764,0.00015983,0.00003312,0.00031616,-0.000065
 42,-0.00011452,0.00049500,0.00033190,-0.00001108,0.00039693,0.00032324
 ,-0.00000940,-0.00007819,0.00000390,-0.00002452,-0.00009840,-0.0000314
 8,0.00014005,0.00022195,0.00002280,-0.00003347,-0.00000543,0.00003620,
 -0.00000106,0.00000248,-0.00000826,-0.00000151,-0.00000139,-0.00000338
 ,0.00001755,-0.00000965,-0.00002978,0.00035381,-0.00099780,0.00012626,
 -0.00035639,-0.00097452,0.00011792,0.00001300,-0.00011401,-0.00031682,
 -0.00005978,-0.00010748,-0.00001876,0.00626837,-0.00218228,-0.00457872
 ,-0.00013485,0.00007445,0.00013378,0.00018653,-0.00005526,-0.00006999,
 -0.00018876,-0.00005472,-0.00007167,-0.00000677,0.00000885,0.00000349,
 -0.00000047,-0.00000592,0.00000200,-0.00000004,-0.00001017,0.00000360,
 -0.00000825,0.00000331,0.00000879,0.00000825,0.00000304,0.00000889,0.,
 -0.00001008,0.00000362,0.00000048,-0.00000584,0.00000201,0.00000683,0.
 00000864,0.00000350,0.00006700,-0.00002671,0.00026461,0.00001440,0.000
 03799,0.00003483,0.00001355,0.00000271,0.00000777,-0.00002008,0.000083
 25,-0.00006997,0.00002109,0.00008267,-0.00006930,-0.00047426,-0.001054
 21,-0.00022861,0.00046408,-0.00105474,-0.00022457,-0.00000164,-0.00000
 624,-0.00000595,-0.00001332,0.00000295,0.00000780,0.00000171,-0.000006
 39,-0.00000591,-0.00001402,0.00003884,0.00003455,-0.00006784,-0.000028
 46,0.00026399,0.00019215,0.00557962,0.01447410\\-0.00000250,-0.0000012
 1,0.00000114,0.00000233,-0.00000074,0.00000051,0.00000055,0.00000102,-
 0.00000316,-0.00000317,0.00000113,0.00000209,0.00000313,0.00000123,0.0
 0000325,0.00000007,-0.00000022,-0.00000492,-0.00000436,0.00000036,0.00
 000064,-0.00000046,-0.00000348,-0.00000731,0.00000164,0.00000501,0.000
 00488,-0.00000205,-0.00000635,-0.00000217,-0.00000378,0.00000017,0.000
 00639,-0.00000359,-0.00000268,-0.00000380,0.00000367,-0.00000515,0.000
 00497,0.00000859,0.00000630,-0.00001041,0.00000030,-0.00000481,0.00000
 219,-0.00000156,0.00000074,0.00000076,-0.00000081,0.00000432,-0.000003
 53,0.00000283,0.00000179,0.00000564,-0.00000005,-0.00000024,0.00000840
 ,0.00000126,-0.00000157,0.00000203,-0.00000062,-0.00000100,0.00000020,
 0.00000012,-0.00000068,0.00000008,-0.00000223,-0.00000161,-0.00000255,
 0.00000146,0.00000190,0.00000103,-0.00000068,0.00000009,-0.00000090,0.
 00000086,0.00000005,0.00000092,-0.00000259,0.00000227,-0.00000167,0.00
 000155,0.00000051,-0.00000424,-0.00000344,-0.00000333,0.00000516,0.000
 00096,-0.00000036,-0.00000163,-0.00000363,-0.00000314,-0.00001087,0.00
 000260,0.00000071,0.00000005,-0.00000819,0.00000685,-0.00000216,-0.000
 00257,-0.00000560,-0.00000485,0.00000036,-0.00000145,-0.00000057,0.000
 00955,-0.00000681,0.00000530,-0.00000676,0.00000444,0.00000341,0.00000
 109,0.00000354,-0.00000410,-0.00000129,-0.00000021,-0.00000209,0.00000
 145,-0.00000190,-0.00000318,0.00000007,-0.00000067,0.00000056,0.000000
 51,-0.00000102,-0.00000005,-0.00000035,-0.00000088,0.00000279,0.000003
 77,-0.00000525,0.00000177,0.00001634,-0.00000227,0.00000634,-0.0000088
 2,-0.00000298,0.00000159,0.00000494,-0.00000403,-0.00000281,-0.0000093
 3,0.00000529,-0.00000249,0.00000078,0.00000280,-0.00000280,-0.00000033
 ,-0.00000007,0.00000138,0.00000038,0.00000015,-0.00000131,0.00000033,0
 .00000165,0.00000242,0.00000033,0.00000690,0.00000123,0.00000234,0.000
 00221,0.00000374,-0.00000620,-0.00000013,-0.00000129,0.00000284,-0.000
 00123,-0.00000139,-0.00001419,0.00001164,0.00000385,-0.00000028,-0.000
 00028,-0.00000032,0.00000123,-0.00000084,0.00000036,-0.00000025,-0.000
 00070,0.00000022,-0.00000020,-0.00000050,-0.00000045,-0.00000065,-0.00
 000028,-0.00000023,0.00000078,0.00000017,-0.00000014,0.00000020,-0.000
 00025,0.00000038,-0.00000036,-0.00000017,0.00000029,-0.00000048,0.0000
 0008,0.00000002,0.00000039,-0.00000021,-0.00000037,0.00000031,-0.00000
 059,-0.00000037,-0.00000049,0.00000066,0.00000059,0.00000020,0.0000001
 3,0.00000088,-0.00000045,0.00000009,-0.00000053,0.00000059,0.00000035,
 -0.00000070,-0.00000056,0.00000038,-0.00000070,0.00000136,0.00000054,-
 0.00000026,-0.00000120,0.00000048,-0.00000053,-0.00000056,0.00000056,-
 0.00000033,0.00000035,0.00000013,-0.00000057,0.00000061,0.00000042,-0.
 00000031,-0.00000012,0.00000011,0.00000091,0.00000047,0.00000081,0.000
 00073,0.00001563,-0.00000307,0.00000295\\\@
 The archive entry for this job was punched.


 ABOVE ALL I AM AN OPTIMIST FOR NUMBER THEORY,
 AND I HOLD THE HOPE THAT WE MAY NOT BE FAR FROM
 A TIME WHEN IRREFUTABLE ARITHMETIC WILL CELEBRATE
 ITS TRIUMPHS IN PHYSICS AND CHEMISTRY.
   -- HERMANN MINKOWSKI, 1905
 Job cpu time:      36 days 11 hours 20 minutes 29.4 seconds.
 Elapsed time:       0 days 13 hours 41 minutes 13.5 seconds.
 File lengths (MBytes):  RWF=  10394 Int=      0 D2E=      0 Chk=    144 Scr=      1
 Normal termination of Gaussian 16 at Wed Oct 25 15:34:42 2023.
