14
 energy: -23.204062100669 gnorm: 0.000482133832 xtb: 6.6.0 (conda-forge)
C           -0.84264727645255        0.58442026799919        1.00072049989829
C            0.49854744048541        0.90632407804636        0.92869360348349
C            1.30003174294627        0.33201559671150       -0.04815016344856
C            0.74980768339063       -0.56533992353545       -0.95415475300615
C           -0.58993162225818       -0.88658375888464       -0.88225514318454
C           -1.39702473520111       -0.31495519780737        0.09695627775161
O           -2.71174461149526       -0.66230404393899        0.13197265459554
S            3.01375355041121        0.77393750152643       -0.09842099959944
H           -1.46302397086805        1.03428979259006        1.76440493033248
H            0.92857096158286        1.60410016654825        1.63062659098444
H            1.36708013210367       -1.01548633022832       -1.71810975652034
H           -1.03030416755801       -1.58170431993212       -1.57872358388649
H           -3.15267779375987       -0.20310061224250        0.85706553301636
H            3.32956266667289       -0.00551321685232       -1.13042569041672
