      -----------------------------------------------------------      
     |                   =====================                   |     
     |                           x T B                           |     
     |                   =====================                   |     
     |                         S. Grimme                         |     
     |          Mulliken Center for Theoretical Chemistry        |     
     |                    University of Bonn                     |     
      -----------------------------------------------------------      

   * xtb version 6.6.0 (conda-forge) compiled by 'runner@Mac-1676020848589.local' on 2023-02-10

   xtb is free software: you can redistribute it and/or modify it under
   the terms of the GNU Lesser General Public License as published by
   the Free Software Foundation, either version 3 of the License, or
   (at your option) any later version.
   
   xtb is distributed in the hope that it will be useful,
   but WITHOUT ANY WARRANTY; without even the implied warranty of
   MERCHANTABILITY or FITNESS FOR A PARTICULAR PURPOSE.  See the
   GNU Lesser General Public License for more details.
   
   Cite this work as:
   * C. Bannwarth, E. Caldeweyher, S. Ehlert, A. Hansen, P. Pracht,
     J. Seibert, S. Spicher, S. Grimme, WIREs Comput. Mol. Sci., 2020, 11,
     e01493. DOI: 10.1002/wcms.1493
   
   for GFN2-xTB:
   * C. Bannwarth, S. Ehlert and S. Grimme., J. Chem. Theory Comput., 2019,
     15, 1652-1671. DOI: 10.1021/acs.jctc.8b01176
   for GFN1-xTB:
   * S. Grimme, C. Bannwarth, P. Shushkov, J. Chem. Theory Comput., 2017,
     13, 1989-2009. DOI: 10.1021/acs.jctc.7b00118
   for GFN0-xTB:
   * P. Pracht, E. Caldeweyher, S. Ehlert, S. Grimme, ChemRxiv, 2019, preprint.
     DOI: 10.26434/chemrxiv.8326202.v1
   for GFN-FF:
   * S. Spicher and S. Grimme, Angew. Chem. Int. Ed., 2020, 59, 15665-15673.
     DOI: 10.1002/anie.202004239
   
   for ALPB and GBSA implicit solvation:
   * S. Ehlert, M. Stahn, S. Spicher, S. Grimme, J. Chem. Theory Comput.,
     2021, 17, 4250-4261. DOI: 10.1021/acs.jctc.1c00471
   
   for DFT-D4:
   * E. Caldeweyher, C. Bannwarth and S. Grimme, J. Chem. Phys., 2017,
     147, 034112. DOI: 10.1063/1.4993215
   * E. Caldeweyher, S. Ehlert, A. Hansen, H. Neugebauer, S. Spicher,
     C. Bannwarth and S. Grimme, J. Chem. Phys., 2019, 150, 154122.
     DOI: 10.1063/1.5090222
   * E. Caldeweyher, J.-M. Mewes, S. Ehlert and S. Grimme, Phys. Chem. Chem. Phys.
     2020, 22, 8499-8512. DOI: 10.1039/D0CP00502A
   
   for sTDA-xTB:
   * S. Grimme and C. Bannwarth, J. Chem. Phys., 2016, 145, 054103.
     DOI: 10.1063/1.4959605
   
   in the mass-spec context:
   * V. Asgeirsson, C. Bauer and S. Grimme, Chem. Sci., 2017, 8, 4879.
     DOI: 10.1039/c7sc00601b
   * J. Koopman and S. Grimme, ACS Omega 2019, 4, 12, 15120-15133.
     DOI: 10.1021/acsomega.9b02011
   
   for metadynamics refer to:
   * S. Grimme, J. Chem. Theory Comput., 2019, 155, 2847-2862
     DOI: 10.1021/acs.jctc.9b00143
   
   for SPH calculations refer to:
   * S. Spicher and S. Grimme, J. Chem. Theory Comput., 2021, 17, 1701-1714
     DOI: 10.1021/acs.jctc.0c01306
   
   with help from (in alphabetical order)
   P. Atkinson, C. Bannwarth, F. Bohle, G. Brandenburg, E. Caldeweyher
   M. Checinski, S. Dohm, S. Ehlert, S. Ehrlich, I. Gerasimov, C. Hölzer
   A. Katbashev, J. Koopman, C. Lavigne, S. Lehtola, F. März, M. Müller,
   F. Musil, H. Neugebauer, J. Pisarek, C. Plett, P. Pracht, F. Pultar,
   J. Seibert, P. Shushkov, S. Spicher, M. Stahn, M. Steiner, T. Strunk,
   J. Stückrath, T. Rose, and J. Unsleber
   
 * started run on 2024/09/17 at 17:30:50.108     

           -------------------------------------------------
          |                Calculation Setup                |
           -------------------------------------------------

          program call               : xtb acetaminophen.xyz --opt --gfn2
          coordinate file            : acetaminophen.xyz
          omp threads                :                     8

   ID    Z sym.   atoms
    1    6 C      1, 2, 5-10
    2    8 O      3, 11
    3    7 N      4
    4    1 H      12-20

           -------------------------------------------------
          |                 G F N 2 - x T B                 |
           -------------------------------------------------

        Reference                      10.1021/acs.jctc.8b01176
      * Hamiltonian:
        H0-scaling (s, p, d)           1.850000    2.230000    2.230000
        zeta-weighting                 0.500000
      * Dispersion:
        s8                             2.700000
        a1                             0.520000
        a2                             5.000000
        s9                             5.000000
      * Repulsion:
        kExp                           1.500000    1.000000
        rExp                           1.000000
      * Coulomb:
        alpha                          2.000000
        third order                    shell-resolved
        anisotropic                    true
        a3                             3.000000
        a5                             4.000000
        cn-shift                       1.200000
        cn-exp                         4.000000
        max-rad                        5.000000


          ...................................................
          :                      SETUP                      :
          :.................................................:
          :  # basis functions                  53          :
          :  # atomic orbitals                  53          :
          :  # shells                           31          :
          :  # electrons                        58          :
          :  max. iterations                   250          :
          :  Hamiltonian                  GFN2-xTB          :
          :  restarted?                      false          :
          :  GBSA solvation                  false          :
          :  PC potential                    false          :
          :  electronic temp.          300.0000000     K    :
          :  accuracy                    1.0000000          :
          :  -> integral cutoff          0.2500000E+02      :
          :  -> integral neglect         0.1000000E-07      :
          :  -> SCF convergence          0.1000000E-05 Eh   :
          :  -> wf. convergence          0.1000000E-03 e    :
          :  Broyden damping             0.4000000          :
          ...................................................

 iter      E             dE          RMSdq      gap      omega  full diag
   1    -33.0969160 -0.330969E+02  0.456E+00    3.36       0.0  T
   2    -33.1524396 -0.555236E-01  0.256E+00    3.45       1.0  T
   3    -33.1536085 -0.116894E-02  0.134E+00    3.55       1.0  T
   4    -33.1594682 -0.585974E-02  0.259E-01    3.38       1.0  T
   5    -33.1603762 -0.907952E-03  0.923E-02    3.45       1.0  T
   6    -33.1603848 -0.857651E-05  0.414E-02    3.46       1.0  T
   7    -33.1603932 -0.846980E-05  0.198E-02    3.45       1.1  T
   8    -33.1603978 -0.460003E-05  0.548E-03    3.45       4.1  T
   9    -33.1603979 -0.260698E-07  0.227E-03    3.45       9.9  T
  10    -33.1603979 -0.523034E-07  0.960E-04    3.45      23.3  T
  11    -33.1603979 -0.872977E-08  0.326E-04    3.45      68.6  T

   *** convergence criteria satisfied after 11 iterations ***

         #    Occupation            Energy/Eh            Energy/eV
      -------------------------------------------------------------
         1        2.0000           -0.6966736             -18.9575
       ...           ...                  ...                  ...
        23        2.0000           -0.4629089             -12.5964
        24        2.0000           -0.4562716             -12.4158
        25        2.0000           -0.4306971             -11.7199
        26        2.0000           -0.4177456             -11.3674
        27        2.0000           -0.4059849             -11.0474
        28        2.0000           -0.3951907             -10.7537
        29        2.0000           -0.3700791             -10.0704 (HOMO)
        30                         -0.2432224              -6.6184 (LUMO)
        31                         -0.2302106              -6.2643
        32                         -0.2048552              -5.5744
        33                         -0.0978401              -2.6624
        34                         -0.0505426              -1.3753
       ...                                ...                  ...
        53                          0.6197642              16.8646
      -------------------------------------------------------------
                  HL-Gap            0.1268568 Eh            3.4519 eV
             Fermi-level           -0.3066508 Eh           -8.3444 eV

 SCC (total)                   0 d,  0 h,  0 min,  0.040 sec
 SCC setup                      ...        0 min,  0.002 sec (  5.495%)
 Dispersion                     ...        0 min,  0.000 sec (  1.244%)
 classical contributions        ...        0 min,  0.000 sec (  0.677%)
 integral evaluation            ...        0 min,  0.002 sec (  4.841%)
 iterations                     ...        0 min,  0.031 sec ( 78.975%)
 molecular gradient             ...        0 min,  0.003 sec (  7.854%)
 printout                       ...        0 min,  0.000 sec (  0.876%)

         :::::::::::::::::::::::::::::::::::::::::::::::::::::
         ::                     SUMMARY                     ::
         :::::::::::::::::::::::::::::::::::::::::::::::::::::
         :: total energy             -32.759640731507 Eh    ::
         :: gradient norm              0.120978682238 Eh/a0 ::
         :: HOMO-LUMO gap              3.451948383387 eV    ::
         ::.................................................::
         :: SCC energy               -33.160397927607 Eh    ::
         :: -> isotropic ES            0.061350729485 Eh    ::
         :: -> anisotropic ES          0.005210606291 Eh    ::
         :: -> anisotropic XC          0.011667887902 Eh    ::
         :: -> dispersion             -0.015822633596 Eh    ::
         :: repulsion energy           0.400794171364 Eh    ::
         :: add. restraining           0.000000000000 Eh    ::
         :: total charge              -0.000000000000 e     ::
         :::::::::::::::::::::::::::::::::::::::::::::::::::::

      ----------------------------------------------------------- 
     |                   =====================                   |
     |                        A N C O P T                        |
     |                   =====================                   |
     |               Approximate Normal Coordinate               |
     |                Rational Function Optimizer                |
      ----------------------------------------------------------- 

          ...................................................
          :                      SETUP                      :
          :.................................................:
          :   optimization level            normal          :
          :   max. optcycles                   200          :
          :   ANC micro-cycles                  20          :
          :   degrees of freedom                54          :
          :.................................................:
          :   RF solver                   davidson          :
          :   write xtbopt.log                true          :
          :   linear?                        false          :
          :   energy convergence         0.5000000E-05 Eh   :
          :   grad. convergence          0.1000000E-02 Eh/α :
          :   maxmium RF displ.          1.0000000          :
          :   Hlow (freq-cutoff)         0.1000000E-01      :
          :   Hmax (freq-cutoff)         5.0000000          :
          :   S6 in model hess.         20.0000000          :
          ...................................................

generating ANC from model Hessian ...
Using Lindh-Hessian (1995)
 Shifting diagonal of input Hessian by    8.5682780743967322E-003
 Lowest  eigenvalues of input Hessian
    0.000000    0.000000    0.000000    0.000000    0.000000    0.000000
    0.010000    0.011098    0.011670    0.016188    0.020366    0.023223
    0.024145    0.027168    0.030643    0.037430    0.041317    0.049706
 Highest eigenvalues
    1.592829    1.793209    1.830271    1.933574    2.009063    2.028631


........................................................................
.............................. CYCLE    1 ..............................
........................................................................

 iter      E             dE          RMSdq      gap      omega  full diag
   1    -33.1603979 -0.331604E+02  0.152E-04    3.45       0.0  T
   2    -33.1603979 -0.113324E-09  0.922E-05    3.45     242.5  T
   3    -33.1603979 -0.507114E-10  0.534E-05    3.45     419.0  T
     SCC iter.                  ...        0 min,  0.001 sec
     gradient                   ...        0 min,  0.001 sec
 * total energy  :   -32.7596407 Eh     change       -0.4622080E-09 Eh
   gradient norm :     0.1209794 Eh/α   predicted     0.0000000E+00 (-100.00%)
   displ. norm   :     0.3529026 α      lambda       -0.2333284E-01
   maximum displ.:     0.1765685 α      in ANC's #8, #29, #17, ...

........................................................................
.............................. CYCLE    2 ..............................
........................................................................

 iter      E             dE          RMSdq      gap      omega  full diag
   1    -33.2164506 -0.332165E+02  0.287E-01    3.77       0.0  T
   2    -33.2167731 -0.322571E-03  0.175E-01    3.74       1.0  T
   3    -33.2167868 -0.136691E-04  0.885E-02    3.75       1.0  T
   4    -33.2168088 -0.219478E-04  0.186E-02    3.74       1.2  T
   5    -33.2168119 -0.317722E-05  0.621E-03    3.75       3.6  T
   6    -33.2168121 -0.202798E-06  0.343E-03    3.75       6.5  T
   7    -33.2168122 -0.111218E-06  0.125E-03    3.75      17.9  T
   8    -33.2168122 -0.222808E-08  0.410E-04    3.75      54.5  T
   9    -33.2168122 -0.670454E-09  0.152E-04    3.75     146.8  T
     SCC iter.                  ...        0 min,  0.005 sec
     gradient                   ...        0 min,  0.001 sec
 * total energy  :   -32.7758384 Eh     change       -0.1619764E-01 Eh
   gradient norm :     0.0454676 Eh/α   predicted    -0.1313283E-01 ( -18.92%)
   displ. norm   :     0.3580720 α      lambda       -0.7304130E-02
   maximum displ.:     0.2636532 α      in ANC's #8, #2, #17, ...

........................................................................
.............................. CYCLE    3 ..............................
........................................................................

 iter      E             dE          RMSdq      gap      omega  full diag
   1    -33.2459351 -0.332459E+02  0.199E-01    3.88       0.0  T
   2    -33.2461010 -0.165955E-03  0.125E-01    3.88       1.0  T
   3    -33.2461070 -0.595032E-05  0.594E-02    3.88       1.0  T
   4    -33.2461143 -0.731413E-05  0.153E-02    3.88       1.5  T
   5    -33.2461167 -0.243071E-05  0.468E-03    3.88       4.8  T
   6    -33.2461169 -0.165067E-06  0.234E-03    3.88       9.6  T
   7    -33.2461169 -0.452710E-07  0.725E-04    3.88      30.8  T
   8    -33.2461169 -0.748990E-09  0.273E-04    3.88      82.0  T
     SCC iter.                  ...        0 min,  0.003 sec
     gradient                   ...        0 min,  0.001 sec
 * total energy  :   -32.7798058 Eh     change       -0.3967400E-02 Eh
   gradient norm :     0.0160673 Eh/α   predicted    -0.4120317E-02 (   3.85%)
   displ. norm   :     0.2422312 α      lambda       -0.1413531E-02
   maximum displ.:     0.1620443 α      in ANC's #2, #8, #13, ...

........................................................................
.............................. CYCLE    4 ..............................
........................................................................

 iter      E             dE          RMSdq      gap      omega  full diag
   1    -33.2454059 -0.332454E+02  0.141E-01    3.84       0.0  T
   2    -33.2454454 -0.395316E-04  0.829E-02    3.86       1.0  T
   3    -33.2454453  0.143887E-06  0.299E-02    3.85       1.0  T
   4    -33.2454473 -0.202180E-05  0.733E-03    3.86       3.1  T
   5    -33.2454482 -0.860769E-06  0.255E-03    3.86       8.8  T
   6    -33.2454482 -0.196996E-07  0.115E-03    3.86      19.5  T
   7    -33.2454482 -0.318467E-08  0.460E-04    3.86      48.6  T
   8    -33.2454482 -0.122210E-08  0.148E-04    3.86     151.1  T
     SCC iter.                  ...        0 min,  0.003 sec
     gradient                   ...        0 min,  0.001 sec
 * total energy  :   -32.7806389 Eh     change       -0.8330845E-03 Eh
   gradient norm :     0.0090590 Eh/α   predicted    -0.7482370E-03 ( -10.18%)
   displ. norm   :     0.2393372 α      lambda       -0.6228196E-03
   maximum displ.:     0.1970810 α      in ANC's #2, #8, #5, ...

........................................................................
.............................. CYCLE    5 ..............................
........................................................................

 iter      E             dE          RMSdq      gap      omega  full diag
   1    -33.2435229 -0.332435E+02  0.933E-02    3.84       0.0  T
   2    -33.2435261 -0.320004E-05  0.549E-02    3.85       1.0  T
   3    -33.2435235  0.263665E-05  0.150E-02    3.84       1.5  T
   4    -33.2435271 -0.358129E-05  0.332E-03    3.84       6.7  T
   5    -33.2435272 -0.817940E-07  0.169E-03    3.84      13.2  T
   6    -33.2435272 -0.322716E-08  0.618E-04    3.84      36.2  T
   7    -33.2435272 -0.227984E-08  0.233E-04    3.84      95.8  T
     SCC iter.                  ...        0 min,  0.004 sec
     gradient                   ...        0 min,  0.001 sec
 * total energy  :   -32.7810942 Eh     change       -0.4553779E-03 Eh
   gradient norm :     0.0100679 Eh/α   predicted    -0.3292493E-03 ( -27.70%)
   displ. norm   :     0.2146775 α      lambda       -0.4128598E-03
   maximum displ.:     0.1833648 α      in ANC's #2, #5, #1, ...

........................................................................
.............................. CYCLE    6 ..............................
........................................................................

 iter      E             dE          RMSdq      gap      omega  full diag
   1    -33.2427763 -0.332428E+02  0.867E-02    3.84       0.0  T
   2    -33.2427791 -0.283937E-05  0.509E-02    3.84       1.0  T
   3    -33.2427762  0.292469E-05  0.172E-02    3.84       1.3  T
   4    -33.2427801 -0.388286E-05  0.267E-03    3.84       8.4  T
   5    -33.2427801 -0.434947E-07  0.123E-03    3.84      18.2  T
   6    -33.2427801 -0.436999E-08  0.652E-04    3.84      34.3  T
   7    -33.2427801 -0.102339E-08  0.224E-04    3.84     100.0  T
     SCC iter.                  ...        0 min,  0.005 sec
     gradient                   ...        0 min,  0.002 sec
 * total energy  :   -32.7814311 Eh     change       -0.3368862E-03 Eh
   gradient norm :     0.0082797 Eh/α   predicted    -0.2159478E-03 ( -35.90%)
   displ. norm   :     0.2672231 α      lambda       -0.4468019E-03
   maximum displ.:     0.2270916 α      in ANC's #2, #5, #1, ...

........................................................................
.............................. CYCLE    7 ..............................
........................................................................

 iter      E             dE          RMSdq      gap      omega  full diag
   1    -33.2428133 -0.332428E+02  0.121E-01    3.83       0.0  T
   2    -33.2428162 -0.297644E-05  0.709E-02    3.83       1.0  T
   3    -33.2428118  0.442886E-05  0.200E-02    3.83       1.1  T
   4    -33.2428176 -0.573660E-05  0.299E-03    3.83       7.5  T
   5    -33.2428176 -0.336684E-07  0.141E-03    3.83      15.8  T
   6    -33.2428176 -0.381180E-08  0.729E-04    3.83      30.7  T
   7    -33.2428176 -0.198486E-08  0.182E-04    3.83     123.0  T
     SCC iter.                  ...        0 min,  0.002 sec
     gradient                   ...        0 min,  0.001 sec
 * total energy  :   -32.7818044 Eh     change       -0.3732995E-03 Eh
   gradient norm :     0.0083665 Eh/α   predicted    -0.2393545E-03 ( -35.88%)
   displ. norm   :     0.3796346 α      lambda       -0.5560658E-03
   maximum displ.:     0.3211876 α      in ANC's #2, #5, #1, ...

........................................................................
.............................. CYCLE    8 ..............................
........................................................................

 iter      E             dE          RMSdq      gap      omega  full diag
   1    -33.2426846 -0.332427E+02  0.187E-01    3.81       0.0  T
   2    -33.2426888 -0.423218E-05  0.109E-01    3.80       1.0  T
   3    -33.2426832  0.563990E-05  0.227E-02    3.80       1.0  T
   4    -33.2426907 -0.758145E-05  0.402E-03    3.80       5.6  T
   5    -33.2426908 -0.505921E-07  0.208E-03    3.80      10.8  T
   6    -33.2426908 -0.635116E-08  0.829E-04    3.80      27.0  T
   7    -33.2426908 -0.274694E-08  0.278E-04    3.80      80.5  T
     SCC iter.                  ...        0 min,  0.004 sec
     gradient                   ...        0 min,  0.001 sec
 * total energy  :   -32.7822381 Eh     change       -0.4337112E-03 Eh
   gradient norm :     0.0110262 Eh/α   predicted    -0.3181102E-03 ( -26.65%)
   displ. norm   :     0.3940110 α      lambda       -0.5300521E-03
   maximum displ.:     0.3324555 α      in ANC's #2, #5, #1, ...

........................................................................
.............................. CYCLE    9 ..............................
........................................................................

 iter      E             dE          RMSdq      gap      omega  full diag
   1    -33.2435726 -0.332436E+02  0.202E-01    3.79       0.0  T
   2    -33.2435774 -0.475749E-05  0.118E-01    3.78       1.0  T
   3    -33.2435735  0.382639E-05  0.196E-02    3.78       1.1  T
   4    -33.2435791 -0.557844E-05  0.418E-03    3.78       5.3  T
   5    -33.2435792 -0.546744E-07  0.221E-03    3.78      10.1  T
   6    -33.2435792 -0.740847E-08  0.980E-04    3.78      22.8  T
   7    -33.2435792 -0.518052E-08  0.302E-04    3.78      74.1  T
     SCC iter.                  ...        0 min,  0.005 sec
     gradient                   ...        0 min,  0.001 sec
 * total energy  :   -32.7826129 Eh     change       -0.3748090E-03 Eh
   gradient norm :     0.0096507 Eh/α   predicted    -0.3061722E-03 ( -18.31%)
   displ. norm   :     0.2361530 α      lambda       -0.3281730E-03
   maximum displ.:     0.1869649 α      in ANC's #2, #5, #34, ...

........................................................................
.............................. CYCLE   10 ..............................
........................................................................

 iter      E             dE          RMSdq      gap      omega  full diag
   1    -33.2464530 -0.332465E+02  0.142E-01    3.78       0.0  T
   2    -33.2464564 -0.340319E-05  0.833E-02    3.78       1.0  T
   3    -33.2464549  0.148677E-05  0.119E-02    3.78       1.9  T
   4    -33.2464572 -0.232337E-05  0.262E-03    3.78       8.5  T
   5    -33.2464572 -0.250810E-07  0.155E-03    3.78      14.5  T
   6    -33.2464572 -0.284049E-08  0.757E-04    3.78      29.6  T
   7    -33.2464572 -0.470283E-08  0.199E-04    3.78     112.4  T
     SCC iter.                  ...        0 min,  0.003 sec
     gradient                   ...        0 min,  0.001 sec
 * total energy  :   -32.7828469 Eh     change       -0.2339424E-03 Eh
   gradient norm :     0.0062340 Eh/α   predicted    -0.1732404E-03 ( -25.95%)
   displ. norm   :     0.3459314 α      lambda       -0.2701169E-03
   maximum displ.:     0.2606888 α      in ANC's #2, #5, #3, ...

........................................................................
.............................. CYCLE   11 ..............................
........................................................................

 iter      E             dE          RMSdq      gap      omega  full diag
   1    -33.2436597 -0.332437E+02  0.218E-01    3.72       0.0  T
   2    -33.2436785 -0.188307E-04  0.128E-01    3.74       1.0  T
   3    -33.2436757  0.283893E-05  0.209E-02    3.73       1.1  T
   4    -33.2436807 -0.496888E-05  0.525E-03    3.74       4.3  T
   5    -33.2436810 -0.302080E-06  0.271E-03    3.74       8.3  T
   6    -33.2436810 -0.126286E-07  0.117E-03    3.74      19.1  T
   7    -33.2436810 -0.114974E-07  0.456E-04    3.74      49.1  T
   8    -33.2436810 -0.106154E-08  0.136E-04    3.74     164.9  T
     SCC iter.                  ...        0 min,  0.003 sec
     gradient                   ...        0 min,  0.001 sec
 * total energy  :   -32.7829249 Eh     change       -0.7804616E-04 Eh
   gradient norm :     0.0179789 Eh/α   predicted    -0.1512220E-03 (  93.76%)
   displ. norm   :     0.1368312 α      lambda       -0.4649886E-03
   maximum displ.:     0.0783686 α      in ANC's #3, #5, #4, ...

........................................................................
.............................. CYCLE   12 ..............................
........................................................................

 iter      E             dE          RMSdq      gap      omega  full diag
   1    -33.2490096 -0.332490E+02  0.821E-02    3.80       0.0  T
   2    -33.2490362 -0.265371E-04  0.493E-02    3.78       1.0  T
   3    -33.2490370 -0.808292E-06  0.232E-02    3.78       1.0  T
   4    -33.2490382 -0.121106E-05  0.463E-03    3.78       4.8  T
   5    -33.2490385 -0.304971E-06  0.176E-03    3.78      12.7  T
   6    -33.2490385 -0.238226E-07  0.928E-04    3.78      24.1  T
   7    -33.2490385 -0.534936E-08  0.415E-04    3.78      53.9  T
     SCC iter.                  ...        0 min,  0.002 sec
     gradient                   ...        0 min,  0.001 sec
 * total energy  :   -32.7831294 Eh     change       -0.2044307E-03 Eh
   gradient norm :     0.0080764 Eh/α   predicted    -0.2368500E-03 (  15.86%)
   displ. norm   :     0.1494125 α      lambda       -0.1851853E-03
   maximum displ.:     0.1042193 α      in ANC's #3, #5, #2, ...

........................................................................
.............................. CYCLE   13 ..............................
........................................................................

 iter      E             dE          RMSdq      gap      omega  full diag
   1    -33.2483439 -0.332483E+02  0.103E-01    3.75       0.0  T
   2    -33.2483510 -0.710451E-05  0.608E-02    3.76       1.0  T
   3    -33.2483504  0.589062E-06  0.118E-02    3.76       1.9  T
   4    -33.2483514 -0.102061E-05  0.303E-03    3.76       7.4  T
   5    -33.2483516 -0.155576E-06  0.131E-03    3.76      17.1  T
   6    -33.2483516 -0.890614E-08  0.563E-04    3.76      39.7  T
   7    -33.2483516 -0.110015E-08  0.256E-04    3.76      87.3  T
     SCC iter.                  ...        0 min,  0.005 sec
     gradient                   ...        0 min,  0.001 sec
 * total energy  :   -32.7832532 Eh     change       -0.1238191E-03 Eh
   gradient norm :     0.0084600 Eh/α   predicted    -0.9466208E-04 ( -23.55%)
   displ. norm   :     0.2244890 α      lambda       -0.1891422E-03
   maximum displ.:     0.1402597 α      in ANC's #3, #5, #2, ...

........................................................................
.............................. CYCLE   14 ..............................
........................................................................

 iter      E             dE          RMSdq      gap      omega  full diag
   1    -33.2449611 -0.332450E+02  0.149E-01    3.73       0.0  T
   2    -33.2449662 -0.507985E-05  0.879E-02    3.74       1.0  T
   3    -33.2449638  0.244589E-05  0.152E-02    3.73       1.5  T
   4    -33.2449673 -0.353292E-05  0.338E-03    3.73       6.6  T
   5    -33.2449674 -0.867822E-07  0.182E-03    3.73      12.3  T
   6    -33.2449674 -0.686750E-08  0.778E-04    3.73      28.7  T
   7    -33.2449674 -0.369818E-08  0.284E-04    3.73      78.7  T
     SCC iter.                  ...        0 min,  0.003 sec
     gradient                   ...        0 min,  0.001 sec
 * total energy  :   -32.7833607 Eh     change       -0.1075680E-03 Eh
   gradient norm :     0.0126089 Eh/α   predicted    -0.9933822E-04 (  -7.65%)
   displ. norm   :     0.1400692 α      lambda       -0.2103268E-03
   maximum displ.:     0.0950210 α      in ANC's #3, #2, #1, ...

........................................................................
.............................. CYCLE   15 ..............................
........................................................................

 iter      E             dE          RMSdq      gap      omega  full diag
   1    -33.2455316 -0.332455E+02  0.521E-02    3.76       0.0  T
   2    -33.2455366 -0.496300E-05  0.309E-02    3.75       1.0  T
   3    -33.2455361  0.495331E-06  0.163E-02    3.76       1.4  T
   4    -33.2455382 -0.211371E-05  0.310E-03    3.75       7.2  T
   5    -33.2455383 -0.719958E-07  0.124E-03    3.75      18.1  T
   6    -33.2455383 -0.846519E-08  0.645E-04    3.76      34.7  T
   7    -33.2455383 -0.133759E-08  0.224E-04    3.75      99.8  T
     SCC iter.                  ...        0 min,  0.003 sec
     gradient                   ...        0 min,  0.001 sec
 * total energy  :   -32.7834560 Eh     change       -0.9525642E-04 Eh
   gradient norm :     0.0059162 Eh/α   predicted    -0.1072312E-03 (  12.57%)
   displ. norm   :     0.1049346 α      lambda       -0.7255688E-04
   maximum displ.:     0.0557968 α      in ANC's #2, #3, #5, ...

........................................................................
.............................. CYCLE   16 ..............................
........................................................................

 iter      E             dE          RMSdq      gap      omega  full diag
   1    -33.2455628 -0.332456E+02  0.674E-02    3.75       0.0  T
   2    -33.2455647 -0.191905E-05  0.390E-02    3.75       1.0  T
   3    -33.2455646  0.195414E-06  0.625E-03    3.75       3.6  T
   4    -33.2455649 -0.338826E-06  0.206E-03    3.75      10.8  T
   5    -33.2455650 -0.659407E-07  0.873E-04    3.75      25.6  T
   6    -33.2455650 -0.198994E-08  0.323E-04    3.75      69.2  T
     SCC iter.                  ...        0 min,  0.004 sec
     gradient                   ...        0 min,  0.001 sec
 * total energy  :   -32.7835045 Eh     change       -0.4849958E-04 Eh
   gradient norm :     0.0036682 Eh/α   predicted    -0.3668881E-04 ( -24.35%)
   displ. norm   :     0.1223482 α      lambda       -0.5806916E-04
   maximum displ.:     0.0775656 α      in ANC's #2, #3, #5, ...

........................................................................
.............................. CYCLE   17 ..............................
........................................................................

 iter      E             dE          RMSdq      gap      omega  full diag
   1    -33.2463828 -0.332464E+02  0.793E-02    3.74       0.0  T
   2    -33.2463836 -0.835521E-06  0.466E-02    3.74       1.0  T
   3    -33.2463835  0.644199E-07  0.426E-03    3.74       5.2  T
   4    -33.2463838 -0.245788E-06  0.151E-03    3.74      14.8  T
   5    -33.2463838 -0.125965E-07  0.827E-04    3.74      27.1  T
   6    -33.2463838 -0.131941E-08  0.297E-04    3.74      75.2  T
     SCC iter.                  ...        0 min,  0.003 sec
     gradient                   ...        0 min,  0.001 sec
 * total energy  :   -32.7835429 Eh     change       -0.3835162E-04 Eh
   gradient norm :     0.0034480 Eh/α   predicted    -0.2947202E-04 ( -23.15%)
   displ. norm   :     0.1231561 α      lambda        0.4299864E-05
   maximum displ.:     0.0780742 α      in ANC's #2, #3, #5, ...

........................................................................
.............................. CYCLE   18 ..............................
........................................................................

 iter      E             dE          RMSdq      gap      omega  full diag
   1    -33.2467518 -0.332468E+02  0.798E-02    3.73       0.0  T
   2    -33.2467528 -0.966855E-06  0.470E-02    3.74       1.0  T
   3    -33.2467527  0.775902E-07  0.447E-03    3.73       5.0  T
   4    -33.2467530 -0.262934E-06  0.166E-03    3.74      13.4  T
   5    -33.2467530 -0.194601E-07  0.894E-04    3.74      25.0  T
   6    -33.2467530 -0.187600E-08  0.316E-04    3.74      70.7  T
     SCC iter.                  ...        0 min,  0.003 sec
     gradient                   ...        0 min,  0.001 sec
 * total energy  :   -32.7835382 Eh     change        0.4616253E-05 Eh
   gradient norm :     0.0062186 Eh/α   predicted     0.2181591E-05 ( -52.74%)
   displ. norm   :     0.0375106 α      lambda       -0.5875417E-04
   maximum displ.:     0.0209703 α      in ANC's #5, #3, #4, ...

........................................................................
.............................. CYCLE   19 ..............................
........................................................................

 iter      E             dE          RMSdq      gap      omega  full diag
   1    -33.2476257 -0.332476E+02  0.269E-02    3.75       0.0  T
   2    -33.2476271 -0.140761E-05  0.165E-02    3.75       1.4  T
   3    -33.2476270  0.116288E-06  0.680E-03    3.75       3.3  T
   4    -33.2476273 -0.329494E-06  0.148E-03    3.75      15.1  T
   5    -33.2476273 -0.293451E-07  0.632E-04    3.75      35.4  T
   6    -33.2476274 -0.165080E-08  0.337E-04    3.75      66.3  T
     SCC iter.                  ...        0 min,  0.002 sec
     gradient                   ...        0 min,  0.001 sec
 * total energy  :   -32.7835705 Eh     change       -0.3231227E-04 Eh
   gradient norm :     0.0029287 Eh/α   predicted    -0.2942266E-04 (  -8.94%)
   displ. norm   :     0.0621079 α      lambda       -0.3239927E-04
   maximum displ.:     0.0387480 α      in ANC's #3, #1, #2, ...

........................................................................
.............................. CYCLE   20 ..............................
........................................................................

 iter      E             dE          RMSdq      gap      omega  full diag
   1    -33.2465670 -0.332466E+02  0.380E-02    3.75       0.0  T
   2    -33.2465675 -0.457880E-06  0.224E-02    3.75       1.0  T
   3    -33.2465672  0.264804E-06  0.483E-03    3.75       4.6  T
   4    -33.2465676 -0.366100E-06  0.108E-03    3.75      20.7  T
   5    -33.2465676 -0.706152E-08  0.507E-04    3.75      44.1  T
   6    -33.2465676 -0.987335E-09  0.244E-04    3.75      91.5  T
     SCC iter.                  ...        0 min,  0.003 sec
     gradient                   ...        0 min,  0.001 sec
 * total energy  :   -32.7835868 Eh     change       -0.1623750E-04 Eh
   gradient norm :     0.0014944 Eh/α   predicted    -0.1626683E-04 (   0.18%)
   displ. norm   :     0.1049819 α      lambda       -0.1578150E-04
   maximum displ.:     0.0750087 α      in ANC's #2, #3, #1, ...
 * RMSD in coord.:     0.6891507 α      energy gain  -0.2394605E-01 Eh

generating ANC from model Hessian ...
Using Lindh-Hessian (1995)
 Shifting diagonal of input Hessian by    8.3345836606960877E-003
 Lowest  eigenvalues of input Hessian
    0.000000    0.000000    0.000000    0.000000    0.000000    0.000000
    0.010000    0.011860    0.012829    0.015533    0.022913    0.025280
    0.027160    0.028500    0.033709    0.047859    0.049669    0.053243
 Highest eigenvalues
    1.712782    1.924360    2.000892    2.047956    2.184093    2.363940


........................................................................
.............................. CYCLE   21 ..............................
........................................................................

 iter      E             dE          RMSdq      gap      omega  full diag
   1    -33.2470471 -0.332470E+02  0.601E-02    3.75       0.0  T
   2    -33.2470473 -0.211116E-06  0.353E-02    3.75       1.0  T
   3    -33.2470473 -0.216026E-07  0.239E-03    3.75       9.4  T
   4    -33.2470474 -0.724623E-07  0.102E-03    3.75      21.9  T
   5    -33.2470474 -0.194525E-08  0.478E-04    3.75      46.8  T
   6    -33.2470474 -0.684324E-09  0.162E-04    3.75     138.4  T
     SCC iter.                  ...        0 min,  0.002 sec
     gradient                   ...        0 min,  0.001 sec
 * total energy  :   -32.7836020 Eh     change       -0.1517321E-04 Eh
   gradient norm :     0.0012824 Eh/α   predicted     0.0000000E+00 (-100.00%)
   displ. norm   :     0.0192831 α      lambda       -0.4256844E-05
   maximum displ.:     0.0131040 α      in ANC's #2, #1, #8, ...

........................................................................
.............................. CYCLE   22 ..............................
........................................................................

 iter      E             dE          RMSdq      gap      omega  full diag
   1    -33.2473084 -0.332473E+02  0.875E-03    3.75       0.0  T
   2    -33.2473084 -0.177925E-07  0.514E-03    3.75       4.3  T
   3    -33.2473084  0.371759E-07  0.151E-03    3.75      14.9  T
   4    -33.2473084 -0.455899E-07  0.201E-04    3.75     111.1  T
   5    -33.2473084 -0.211720E-09  0.100E-04    3.75     222.5  T
     SCC iter.                  ...        0 min,  0.003 sec
     gradient                   ...        0 min,  0.001 sec
 * total energy  :   -32.7836068 Eh     change       -0.4851149E-05 Eh
   gradient norm :     0.0004544 Eh/α   predicted    -0.2332213E-05 ( -51.92%)
   displ. norm   :     0.0369463 α      lambda       -0.4205159E-05
   maximum displ.:     0.0262965 α      in ANC's #2, #1, #5, ...

   *** GEOMETRY OPTIMIZATION CONVERGED AFTER 22 ITERATIONS ***

------------------------------------------------------------------------
 total energy gain   :        -0.0239661 Eh      -15.0389 kcal/mol
 total RMSD          :         0.6908651 a0        0.3656 Å
 total power (kW/mol):        -2.8601332 (step) -456.9762 (real)
------------------------------------------------------------------------

 ANCopt (total)                0 d,  0 h,  0 min,  0.138 sec
 optimizer setup                ...        0 min,  0.001 sec (  0.450%)
 model hessian                  ...        0 min,  0.005 sec (  3.856%)
 ANC generation                 ...        0 min,  0.001 sec (  0.790%)
 coordinate transformation      ...        0 min,  0.000 sec (  0.080%)
 single point calculation       ...        0 min,  0.113 sec ( 82.360%)
 optimization log               ...        0 min,  0.002 sec (  1.432%)
 hessian update                 ...        0 min,  0.001 sec (  0.394%)
 rational function              ...        0 min,  0.013 sec (  9.252%)

================
 final structure:
================
20
 xtb: 6.6.0 (conda-forge)
C            3.69775814355472       -0.09741379382813       -0.10248896967509
C            2.31088553936564        0.46357495471784       -0.35316248358482
O            2.11550295118962        1.50760169493708       -0.93178320760119
N            1.33183651790098       -0.34016648565374        0.15267645965251
C           -0.05861400627406       -0.17360767726340        0.11131696917072
C           -0.85333408945174       -1.17990235712324        0.65809516524258
C           -2.22835009800983       -1.07946780529996        0.64633274300881
C           -2.83904866022458        0.03695237822358        0.08395476151909
C           -2.04882861290255        1.04252042740966       -0.45830501758872
C           -0.67040254218415        0.94327197457957       -0.44679373930645
O           -4.19951836152245        0.10104781227999        0.08702978522700
H            3.77701133931050       -1.11135530845380       -0.48845012613204
H            3.90450460102534       -0.10986121148704        0.96600994261490
H            4.43040407621048        0.53358790371830       -0.59680434389960
H            1.63282396639984       -1.18994628756661        0.60986479252468
H           -0.38817221901440       -2.05149654093824        1.09743180862149
H           -2.84610437741370       -1.85638830779943        1.06702175658591
H           -2.51590669666810        1.91491887954697       -0.89565493988224
H           -0.06606839207114        1.72669821518807       -0.87108133114872
H           -4.48647907922047        0.91953153481244       -0.33521002534880

 Bond Distances (Angstroems)
 ---------------------------
C1-C2=1.5169         C1-H12=1.0878        C1-H13=1.0884        C1-H14=1.0859        C2-C1=1.5169         C2-O3=1.2095         
C2-N4=1.3640         O3-C2=1.2095         N4-C2=1.3640         N4-C5=1.4010         N4-H15=1.0108        C5-N4=1.4010         
C5-C6=1.3940         C5-C10=1.3904        C6-C5=1.3940         C6-C7=1.3787         C6-H16=1.0812        C7-C6=1.3787         
C7-C8=1.3913         C7-H17=1.0781        C8-C7=1.3913         C8-C9=1.3891         C8-O11=1.3620        C9-C8=1.3891         
C9-C10=1.3820        C9-H18=1.0819        C10-C5=1.3904        C10-C9=1.3820        C10-H19=1.0766       O11-C8=1.3620        
O11-H20=0.9646       H12-C1=1.0878        H13-C1=1.0884        H14-C1=1.0859        H15-N4=1.0108        H16-C6=1.0812        
H17-C7=1.0781        H18-C9=1.0819        H19-C10=1.0766       H20-O11=0.9646       
 C  H  Rav=1.0828 sigma=0.0043  Rmin=1.0766  Rmax=1.0884     7
 C  C  Rav=1.4061 sigma=0.0455  Rmin=1.3787  Rmax=1.5169     7
 N  H  Rav=1.0108 sigma=0.0000  Rmin=1.0108  Rmax=1.0108     1
 N  C  Rav=1.3825 sigma=0.0185  Rmin=1.3640  Rmax=1.4010     2
 O  H  Rav=0.9646 sigma=0.0000  Rmin=0.9646  Rmax=0.9646     1
 O  C  Rav=1.2858 sigma=0.0762  Rmin=1.2095  Rmax=1.3620     2

 selected bond angles (degree)
 --------------------
H12-C1-C2=110.65               H13-C1-C2=109.89               H13-C1-H12=108.89              H14-C1-C2=109.07               
H14-C1-H12=109.33              H14-C1-H13=108.99              O3-C2-C1=123.09                N4-C2-C1=112.15                
N4-C2-O3=124.76                C5-N4-C2=129.15                H15-N4-C2=116.70               H15-N4-C5=114.13               
C6-C5-N4=117.93                C10-C5-N4=122.96               C10-C5-C6=119.11               C7-C6-C5=120.84                
H16-C6-C5=119.74               H16-C6-C7=119.42               C8-C7-C6=119.98                H17-C7-C6=121.04               
H17-C7-C8=118.98               C9-C8-C7=119.27                O11-C8-C7=118.38               O11-C8-C9=122.35               
C10-C9-C8=120.81               H18-C9-C8=119.73               H18-C9-C10=119.46              C9-C10-C5=119.99               
H19-C10-C5=119.72              H19-C10-C9=120.29              

 selected dihedral angles (degree)
 ---------------------------------
O3-C2-C1-H12=234.61           O3-C2-C1-H13=114.32           O3-C2-C1-H14=354.91           N4-C2-C1-H12= 54.90           
N4-C2-C1-H13=294.61           N4-C2-C1-H14=175.20           C5-N4-C2-C1=180.70            C5-N4-C2-O3=  1.00            
H15-N4-C2-C1=359.36           H15-N4-C2-O3=179.66           C6-C5-N4-C2=177.21            C6-C5-N4-H15=358.52           
C10-C5-N4-C2=357.19           C10-C5-N4-H15=178.50          C7-C6-C5-N4=180.18            C7-C6-C5-C10=  0.20           
H16-C6-C5-N4=  0.16           H16-C6-C5-C10=180.18          C8-C7-C6-C5=  0.00            C8-C7-C6-H16=180.00           
H17-C7-C6-C5=179.91           H17-C7-C6-H16=359.93          C9-C8-C7-C6=359.84            C9-C8-C7-H17=179.92           
O11-C8-C7-C6=179.85           O11-C8-C7-H17=359.92          C10-C9-C8-C7=  0.14           C10-C9-C8-O11=180.14          
H18-C9-C8-C7=180.13           H18-C9-C8-O11=  0.13          C9-C10-C5-N4=179.81           C9-C10-C5-C6=359.78           
H19-C10-C5-N4=359.97          H19-C10-C5-C6=179.95          C5-C10-C9-C8=  0.05           C5-C10-C9-H18=180.06          
H19-C10-C9-C8=179.88          H19-C10-C9-H18=359.89         
           -------------------------------------------------
          |                Final Singlepoint                |
           -------------------------------------------------

          ...................................................
          :                      SETUP                      :
          :.................................................:
          :  # basis functions                  53          :
          :  # atomic orbitals                  53          :
          :  # shells                           31          :
          :  # electrons                        58          :
          :  max. iterations                   250          :
          :  Hamiltonian                  GFN2-xTB          :
          :  restarted?                      false          :
          :  GBSA solvation                  false          :
          :  PC potential                    false          :
          :  electronic temp.          300.0000000     K    :
          :  accuracy                    1.0000000          :
          :  -> integral cutoff          0.2500000E+02      :
          :  -> integral neglect         0.1000000E-07      :
          :  -> SCF convergence          0.1000000E-05 Eh   :
          :  -> wf. convergence          0.1000000E-03 e    :
          :  Broyden damping             0.4000000          :
          ...................................................

 iter      E             dE          RMSdq      gap      omega  full diag
   1    -33.2473084 -0.332473E+02  0.407E-05    3.75       0.0  T
   2    -33.2473084 -0.851230E-11  0.235E-05    3.75     952.0  T
   3    -33.2473084 -0.328271E-11  0.145E-05    3.75    1545.0  T

   *** convergence criteria satisfied after 3 iterations ***

         #    Occupation            Energy/Eh            Energy/eV
      -------------------------------------------------------------
         1        2.0000           -0.7104167             -19.3314
       ...           ...                  ...                  ...
        23        2.0000           -0.4743067             -12.9065
        24        2.0000           -0.4606218             -12.5342
        25        2.0000           -0.4322851             -11.7631
        26        2.0000           -0.4293509             -11.6832
        27        2.0000           -0.4091564             -11.1337
        28        2.0000           -0.3937638             -10.7149
        29        2.0000           -0.3706046             -10.0847 (HOMO)
        30                         -0.2327962              -6.3347 (LUMO)
        31                         -0.2269563              -6.1758
        32                         -0.1863886              -5.0719
        33                         -0.0857037              -2.3321
        34                          0.0083291               0.2266
       ...                                ...                  ...
        53                          0.6782852              18.4571
      -------------------------------------------------------------
                  HL-Gap            0.1378083 Eh            3.7500 eV
             Fermi-level           -0.3017004 Eh           -8.2097 eV

 SCC (total)                   0 d,  0 h,  0 min,  0.003 sec
 SCC setup                      ...        0 min,  0.000 sec (  1.878%)
 Dispersion                     ...        0 min,  0.000 sec (  1.580%)
 classical contributions        ...        0 min,  0.000 sec (  0.483%)
 integral evaluation            ...        0 min,  0.000 sec ( 14.093%)
 iterations                     ...        0 min,  0.001 sec ( 38.092%)
 molecular gradient             ...        0 min,  0.001 sec ( 41.743%)
 printout                       ...        0 min,  0.000 sec (  1.843%)

         :::::::::::::::::::::::::::::::::::::::::::::::::::::
         ::                     SUMMARY                     ::
         :::::::::::::::::::::::::::::::::::::::::::::::::::::
         :: total energy             -32.783606809676 Eh    ::
         :: gradient norm              0.000454217302 Eh/a0 ::
         :: HOMO-LUMO gap              3.749956049809 eV    ::
         ::.................................................::
         :: SCC energy               -33.247308446850 Eh    ::
         :: -> isotropic ES            0.057760346794 Eh    ::
         :: -> anisotropic ES          0.004073720420 Eh    ::
         :: -> anisotropic XC          0.009571248513 Eh    ::
         :: -> dispersion             -0.016032193565 Eh    ::
         :: repulsion energy           0.463746323371 Eh    ::
         :: add. restraining           0.000000000000 Eh    ::
         :: total charge               0.000000000000 e     ::
         :::::::::::::::::::::::::::::::::::::::::::::::::::::

           -------------------------------------------------
          |                Property Printout                |
           -------------------------------------------------

    * Orbital Energies and Occupations

         #    Occupation            Energy/Eh            Energy/eV
      -------------------------------------------------------------
         1        2.0000           -0.7104167             -19.3314
       ...           ...                  ...                  ...
        17        2.0000           -0.4998165             -13.6007
        18        2.0000           -0.4920529             -13.3894
        19        2.0000           -0.4916177             -13.3776
        20        2.0000           -0.4839412             -13.1687
        21        2.0000           -0.4814708             -13.1015
        22        2.0000           -0.4747377             -12.9183
        23        2.0000           -0.4743067             -12.9065
        24        2.0000           -0.4606218             -12.5342
        25        2.0000           -0.4322851             -11.7631
        26        2.0000           -0.4293509             -11.6832
        27        2.0000           -0.4091564             -11.1337
        28        2.0000           -0.3937638             -10.7149
        29        2.0000           -0.3706046             -10.0847 (HOMO)
        30                         -0.2327962              -6.3347 (LUMO)
        31                         -0.2269563              -6.1758
        32                         -0.1863886              -5.0719
        33                         -0.0857037              -2.3321
        34                          0.0083291               0.2266
        35                          0.0699380               1.9031
        36                          0.0864325               2.3519
        37                          0.1279404               3.4814
        38                          0.1515283               4.1233
        39                          0.1537009               4.1824
        40                          0.1645776               4.4784
       ...                                ...                  ...
        53                          0.6782852              18.4571
      -------------------------------------------------------------
                  HL-Gap            0.1378083 Eh            3.7500 eV
             Fermi-level           -0.3017004 Eh           -8.2097 eV

     #   Z          covCN         q      C6AA      α(0)
     1   6 C        3.758    -0.145    23.359     6.891
     2   6 C        2.745     0.280    22.252     7.724
     3   8 O        0.858    -0.415    21.989     6.287
     4   7 N        2.697    -0.163    24.528     7.356
     5   6 C        2.904     0.064    26.556     8.450
     6   6 C        2.926    -0.055    29.374     8.888
     7   6 C        2.919    -0.053    29.313     8.878
     8   6 C        2.845     0.140    24.945     8.185
     9   6 C        2.920    -0.068    29.702     8.937
    10   6 C        2.920    -0.048    29.184     8.859
    11   8 O        1.659    -0.393    20.712     6.144
    12   1 H        0.925     0.054     2.273     2.358
    13   1 H        0.925     0.058     2.223     2.332
    14   1 H        0.925     0.073     2.055     2.242
    15   1 H        0.860     0.174     1.248     1.750
    16   1 H        0.925     0.032     2.564     2.504
    17   1 H        0.926     0.053     2.284     2.363
    18   1 H        0.925     0.034     2.531     2.488
    19   1 H        0.926     0.080     1.983     2.202
    20   1 H        0.805     0.300     0.722     1.334

 Mol. C6AA /au·bohr⁶  :       4614.833132
 Mol. C8AA /au·bohr⁸  :     108981.683527
 Mol. α(0) /au        :        106.172374


Wiberg/Mayer (AO) data.
largest (>0.10) Wiberg bond orders for each atom

 ---------------------------------------------------------------------------
     #   Z sym  total        # sym  WBO       # sym  WBO       # sym  WBO
 ---------------------------------------------------------------------------
     1   6 C    3.993 --    14 H    0.983     2 C    0.978    12 H    0.973
                            13 H    0.969
     2   6 C    3.947 --     3 O    1.713     4 N    1.199     1 C    0.978
     3   8 O    2.029 --     2 C    1.713     4 N    0.168
     4   7 N    3.488 --     2 C    1.199     5 C    1.067    15 H    0.937
                             3 O    0.168
     5   6 C    3.961 --    10 C    1.373     6 C    1.361     4 N    1.067
     6   6 C    3.989 --     7 C    1.469     5 C    1.361    16 H    0.967
                             9 C    0.102
     7   6 C    3.988 --     6 C    1.469     8 C    1.357    17 H    0.968
                            10 C    0.105
     8   6 C    3.939 --     9 C    1.374     7 C    1.357    11 O    1.068
     9   6 C    3.988 --    10 C    1.452     8 C    1.374    18 H    0.966
                             6 C    0.102
    10   6 C    3.986 --     9 C    1.452     5 C    1.373    19 H    0.959
                             7 C    0.105
    11   8 O    2.111 --     8 C    1.068    20 H    0.889
    12   1 H    0.997 --     1 C    0.973
    13   1 H    0.996 --     1 C    0.969
    14   1 H    0.994 --     1 C    0.983
    15   1 H    0.969 --     4 N    0.937
    16   1 H    0.999 --     6 C    0.967
    17   1 H    0.997 --     7 C    0.968
    18   1 H    0.998 --     9 C    0.966
    19   1 H    0.994 --    10 C    0.959
    20   1 H    0.910 --    11 O    0.889
 ---------------------------------------------------------------------------

Topologies differ in total number of bonds
Writing topology from bond orders to xtbtopo.mol

molecular dipole:
                 x           y           z       tot (Debye)
 q only:        0.073      -0.728       0.431
   full:        0.190      -0.850       0.499       2.551
molecular quadrupole (traceless):
                xx          xy          yy          xz          yz          zz
 q only:        4.042     -12.178      -1.677       6.473       0.537      -2.365
  q+dip:        4.439     -15.981      -0.396       8.468      -1.249      -4.043
   full:        3.774     -16.155      -1.315       8.672       0.593      -2.459

           -------------------------------------------------
          |                Geometry Summary                 |
           -------------------------------------------------

      molecular mass/u    :      151.1628670
   center of mass at/Å    :       -0.2879485       0.1270779      -0.0605351
  moments of inertia/u·Å² :        0.1397830E+03   0.9127843E+03   0.1049288E+04
rotational constants/cm⁻¹ :        0.1205986E+00   0.1846836E-01   0.1606577E-01

 * 19 selected distances

     #   Z          #   Z                                           value/Å
     2   6 C        3   8 O                                       1.2095323
     2   6 C        4   7 N                                       1.3639687
     4   7 N        5   6 C                                       1.4010016 (max)
     5   6 C        6   6 C                                       1.3939784
     6   6 C        7   6 C                                       1.3787294
     7   6 C        8   6 C                                       1.3912642
     8   6 C        9   6 C                                       1.3891223
     5   6 C       10   6 C                                       1.3903932
     9   6 C       10   6 C                                       1.3820425
     8   6 C       11   8 O                                       1.3619823
     1   6 C       12   1 H                                       1.0878073
     1   6 C       13   1 H                                       1.0883883
     1   6 C       14   1 H                                       1.0859471
     4   7 N       15   1 H                                       1.0108118
     6   6 C       16   1 H                                       1.0812349
     7   6 C       17   1 H                                       1.0780563
     9   6 C       18   1 H                                       1.0819040
    10   6 C       19   1 H                                       1.0765671
    11   8 O       20   1 H                                       0.9646495 (min)

 * 6 distinct bonds (by element types)

   Z      Z             #   av. dist./Å        max./Å        min./Å
   1 H    6 C           7     1.0828436     1.0883883     1.0765671
   6 C    6 C           6     1.3875884     1.3939784     1.3787294
   1 H    7 N           1     1.0108118     1.0108118     1.0108118
   6 C    7 N           2     1.3824852     1.4010016     1.3639687
   1 H    8 O           1     0.9646495     0.9646495     0.9646495
   6 C    8 O           2     1.2857573     1.3619823     1.2095323


optimized geometry written to: xtbopt.xyz


           -------------------------------------------------
          | TOTAL ENERGY              -32.783606809676 Eh   |
          | GRADIENT NORM               0.000454217302 Eh/α |
          | HOMO-LUMO GAP               3.749956049809 eV   |
           -------------------------------------------------
########################################################################
[WARNING] Runtime exception occurred
-2- restart_readRestart: Dimension missmatch in restart file.
-1- restart_readRestart: Number of electron missmatch in restart file.
########################################################################

------------------------------------------------------------------------
 * finished run on 2024/09/17 at 17:30:50.556     
------------------------------------------------------------------------
 total:
 * wall-time:     0 d,  0 h,  0 min,  0.447 sec
 *  cpu-time:     0 d,  0 h,  0 min,  2.905 sec
 * ratio c/w:     6.499 speedup
 SCF:
 * wall-time:     0 d,  0 h,  0 min,  0.040 sec
 *  cpu-time:     0 d,  0 h,  0 min,  0.203 sec
 * ratio c/w:     5.028 speedup
 ANC optimizer:
 * wall-time:     0 d,  0 h,  0 min,  0.141 sec
 *  cpu-time:     0 d,  0 h,  0 min,  1.073 sec
 * ratio c/w:     7.582 speedup

