      -----------------------------------------------------------      
     |                   =====================                   |     
     |                           x T B                           |     
     |                   =====================                   |     
     |                         S. Grimme                         |     
     |          Mulliken Center for Theoretical Chemistry        |     
     |                    University of Bonn                     |     
      -----------------------------------------------------------      

   * xtb version 6.6.0 (conda-forge) compiled by 'runner@Mac-1676020848589.local' on 2023-02-10

   xtb is free software: you can redistribute it and/or modify it under
   the terms of the GNU Lesser General Public License as published by
   the Free Software Foundation, either version 3 of the License, or
   (at your option) any later version.
   
   xtb is distributed in the hope that it will be useful,
   but WITHOUT ANY WARRANTY; without even the implied warranty of
   MERCHANTABILITY or FITNESS FOR A PARTICULAR PURPOSE.  See the
   GNU Lesser General Public License for more details.
   
   Cite this work as:
   * C. Bannwarth, E. Caldeweyher, S. Ehlert, A. Hansen, P. Pracht,
     J. Seibert, S. Spicher, S. Grimme, WIREs Comput. Mol. Sci., 2020, 11,
     e01493. DOI: 10.1002/wcms.1493
   
   for GFN2-xTB:
   * C. Bannwarth, S. Ehlert and S. Grimme., J. Chem. Theory Comput., 2019,
     15, 1652-1671. DOI: 10.1021/acs.jctc.8b01176
   for GFN1-xTB:
   * S. Grimme, C. Bannwarth, P. Shushkov, J. Chem. Theory Comput., 2017,
     13, 1989-2009. DOI: 10.1021/acs.jctc.7b00118
   for GFN0-xTB:
   * P. Pracht, E. Caldeweyher, S. Ehlert, S. Grimme, ChemRxiv, 2019, preprint.
     DOI: 10.26434/chemrxiv.8326202.v1
   for GFN-FF:
   * S. Spicher and S. Grimme, Angew. Chem. Int. Ed., 2020, 59, 15665-15673.
     DOI: 10.1002/anie.202004239
   
   for ALPB and GBSA implicit solvation:
   * S. Ehlert, M. Stahn, S. Spicher, S. Grimme, J. Chem. Theory Comput.,
     2021, 17, 4250-4261. DOI: 10.1021/acs.jctc.1c00471
   
   for DFT-D4:
   * E. Caldeweyher, C. Bannwarth and S. Grimme, J. Chem. Phys., 2017,
     147, 034112. DOI: 10.1063/1.4993215
   * E. Caldeweyher, S. Ehlert, A. Hansen, H. Neugebauer, S. Spicher,
     C. Bannwarth and S. Grimme, J. Chem. Phys., 2019, 150, 154122.
     DOI: 10.1063/1.5090222
   * E. Caldeweyher, J.-M. Mewes, S. Ehlert and S. Grimme, Phys. Chem. Chem. Phys.
     2020, 22, 8499-8512. DOI: 10.1039/D0CP00502A
   
   for sTDA-xTB:
   * S. Grimme and C. Bannwarth, J. Chem. Phys., 2016, 145, 054103.
     DOI: 10.1063/1.4959605
   
   in the mass-spec context:
   * V. Asgeirsson, C. Bauer and S. Grimme, Chem. Sci., 2017, 8, 4879.
     DOI: 10.1039/c7sc00601b
   * J. Koopman and S. Grimme, ACS Omega 2019, 4, 12, 15120-15133.
     DOI: 10.1021/acsomega.9b02011
   
   for metadynamics refer to:
   * S. Grimme, J. Chem. Theory Comput., 2019, 155, 2847-2862
     DOI: 10.1021/acs.jctc.9b00143
   
   for SPH calculations refer to:
   * S. Spicher and S. Grimme, J. Chem. Theory Comput., 2021, 17, 1701-1714
     DOI: 10.1021/acs.jctc.0c01306
   
   with help from (in alphabetical order)
   P. Atkinson, C. Bannwarth, F. Bohle, G. Brandenburg, E. Caldeweyher
   M. Checinski, S. Dohm, S. Ehlert, S. Ehrlich, I. Gerasimov, C. Hölzer
   A. Katbashev, J. Koopman, C. Lavigne, S. Lehtola, F. März, M. Müller,
   F. Musil, H. Neugebauer, J. Pisarek, C. Plett, P. Pracht, F. Pultar,
   J. Seibert, P. Shushkov, S. Spicher, M. Stahn, M. Steiner, T. Strunk,
   J. Stückrath, T. Rose, and J. Unsleber
   
 * started run on 2024/09/17 at 17:38:39.819     

           -------------------------------------------------
          |                Calculation Setup                |
           -------------------------------------------------

          program call               : xtb fexofenadine.xyz --opt --gfn2
          coordinate file            : fexofenadine.xyz
          omp threads                :                     8

   ID    Z sym.   atoms
    1    6 C      1-13, 15-32, 35
    2    7 N      14
    3    8 O      33, 34, 36, 37
    4    1 H      38-76

           -------------------------------------------------
          |                 G F N 2 - x T B                 |
           -------------------------------------------------

        Reference                      10.1021/acs.jctc.8b01176
      * Hamiltonian:
        H0-scaling (s, p, d)           1.850000    2.230000    2.230000
        zeta-weighting                 0.500000
      * Dispersion:
        s8                             2.700000
        a1                             0.520000
        a2                             5.000000
        s9                             5.000000
      * Repulsion:
        kExp                           1.500000    1.000000
        rExp                           1.000000
      * Coulomb:
        alpha                          2.000000
        third order                    shell-resolved
        anisotropic                    true
        a3                             3.000000
        a5                             4.000000
        cn-shift                       1.200000
        cn-exp                         4.000000
        max-rad                        5.000000


          ...................................................
          :                      SETUP                      :
          :.................................................:
          :  # basis functions                 187          :
          :  # atomic orbitals                 187          :
          :  # shells                          113          :
          :  # electrons                       196          :
          :  max. iterations                   250          :
          :  Hamiltonian                  GFN2-xTB          :
          :  restarted?                      false          :
          :  GBSA solvation                  false          :
          :  PC potential                    false          :
          :  electronic temp.          300.0000000     K    :
          :  accuracy                    1.0000000          :
          :  -> integral cutoff          0.2500000E+02      :
          :  -> integral neglect         0.1000000E-07      :
          :  -> SCF convergence          0.1000000E-05 Eh   :
          :  -> wf. convergence          0.1000000E-03 e    :
          :  Broyden damping             0.4000000          :
          ...................................................

 iter      E             dE          RMSdq      gap      omega  full diag
   1   -108.8644047 -0.108864E+03  0.403E+00    3.57       0.0  T
   2   -108.9735347 -0.109130E+00  0.231E+00    3.10       1.0  T
   3   -108.9600166  0.135182E-01  0.102E+00    3.37       1.0  T
   4   -108.9863422 -0.263256E-01  0.225E-01    2.54       1.0  T
   5   -108.9886873 -0.234511E-02  0.960E-02    2.65       1.0  T
   6   -108.9892311 -0.543839E-03  0.450E-02    2.65       1.0  T
   7   -108.9892836 -0.524632E-04  0.170E-02    2.66       1.0  T
   8   -108.9892868 -0.316476E-05  0.568E-03    2.67       2.0  T
   9   -108.9892881 -0.131727E-05  0.242E-03    2.67       4.7  T
  10   -108.9892882 -0.881340E-07  0.105E-03    2.67      10.9  T
  11   -108.9892882 -0.221259E-07  0.424E-04    2.67      27.1  T
  12   -108.9892882 -0.329955E-08  0.213E-04    2.67      53.7  T

   *** convergence criteria satisfied after 12 iterations ***

         #    Occupation            Energy/Eh            Energy/eV
      -------------------------------------------------------------
         1        2.0000           -0.7258074             -19.7502
       ...           ...                  ...                  ...
        92        2.0000           -0.4020108             -10.9393
        93        2.0000           -0.3991584             -10.8617
        94        2.0000           -0.3979142             -10.8278
        95        2.0000           -0.3934050             -10.7051
        96        2.0000           -0.3916435             -10.6572
        97        2.0000           -0.3897235             -10.6049
        98        2.0000           -0.3534101              -9.6168 (HOMO)
        99                         -0.2554235              -6.9504 (LUMO)
       100                         -0.2316337              -6.3031
       101                         -0.2287521              -6.2247
       102                         -0.2280444              -6.2054
       103                         -0.2261674              -6.1543
       ...                                ...                  ...
       187                          0.6287143              17.1082
      -------------------------------------------------------------
                  HL-Gap            0.0979866 Eh            2.6664 eV
             Fermi-level           -0.3044168 Eh           -8.2836 eV

 SCC (total)                   0 d,  0 h,  0 min,  0.119 sec
 SCC setup                      ...        0 min,  0.001 sec (  1.199%)
 Dispersion                     ...        0 min,  0.001 sec (  1.116%)
 classical contributions        ...        0 min,  0.000 sec (  0.389%)
 integral evaluation            ...        0 min,  0.004 sec (  3.251%)
 iterations                     ...        0 min,  0.095 sec ( 79.198%)
 molecular gradient             ...        0 min,  0.017 sec ( 14.390%)
 printout                       ...        0 min,  0.001 sec (  0.443%)

         :::::::::::::::::::::::::::::::::::::::::::::::::::::
         ::                     SUMMARY                     ::
         :::::::::::::::::::::::::::::::::::::::::::::::::::::
         :: total energy            -107.570976851639 Eh    ::
         :: gradient norm              0.158606803699 Eh/a0 ::
         :: HOMO-LUMO gap              2.666351434424 eV    ::
         ::.................................................::
         :: SCC energy              -108.989288189526 Eh    ::
         :: -> isotropic ES            0.111812723001 Eh    ::
         :: -> anisotropic ES          0.017762967336 Eh    ::
         :: -> anisotropic XC          0.052944288926 Eh    ::
         :: -> dispersion             -0.085139799479 Eh    ::
         :: repulsion energy           1.416966549508 Eh    ::
         :: add. restraining           0.000000000000 Eh    ::
         :: total charge              -0.000000000000 e     ::
         :::::::::::::::::::::::::::::::::::::::::::::::::::::

      ----------------------------------------------------------- 
     |                   =====================                   |
     |                        A N C O P T                        |
     |                   =====================                   |
     |               Approximate Normal Coordinate               |
     |                Rational Function Optimizer                |
      ----------------------------------------------------------- 

          ...................................................
          :                      SETUP                      :
          :.................................................:
          :   optimization level            normal          :
          :   max. optcycles                   228          :
          :   ANC micro-cycles                  20          :
          :   degrees of freedom               222          :
          :.................................................:
          :   RF solver                   davidson          :
          :   write xtbopt.log                true          :
          :   linear?                        false          :
          :   energy convergence         0.5000000E-05 Eh   :
          :   grad. convergence          0.1000000E-02 Eh/α :
          :   maxmium RF displ.          1.0000000          :
          :   Hlow (freq-cutoff)         0.1000000E-01      :
          :   Hmax (freq-cutoff)         5.0000000          :
          :   S6 in model hess.         20.0000000          :
          ...................................................

generating ANC from model Hessian ...
Using Lindh-Hessian (1995)
 Shifting diagonal of input Hessian by    9.9819216803802308E-003
 Lowest  eigenvalues of input Hessian
    0.000000    0.000000    0.000000    0.000000    0.000000    0.000000
    0.010000    0.010028    0.010109    0.010123    0.010318    0.010590
    0.010671    0.010929    0.011055    0.011131    0.011213    0.011529
 Highest eigenvalues
    1.914541    1.917414    1.921067    1.923306    1.928934    2.001951


........................................................................
.............................. CYCLE    1 ..............................
........................................................................

 iter      E             dE          RMSdq      gap      omega  full diag
   1   -108.9892882 -0.108989E+03  0.878E-05    2.67       0.0  T
   2   -108.9892882 -0.963496E-10  0.595E-05    2.67     192.6  T
   3   -108.9892882 -0.969891E-10  0.379E-05    2.67     302.4  T
     SCC iter.                  ...        0 min,  0.014 sec
     gradient                   ...        0 min,  0.015 sec
 * total energy  :  -107.5709769 Eh     change       -0.1219192E-08 Eh
   gradient norm :     0.1586107 Eh/α   predicted     0.0000000E+00 (-100.00%)
   displ. norm   :     0.4116162 α      lambda       -0.3792382E-01
   maximum displ.:     0.1380012 α      in ANC's #98, #132, #127, ...

........................................................................
.............................. CYCLE    2 ..............................
........................................................................

 iter      E             dE          RMSdq      gap      omega  full diag
   1   -109.1193781 -0.109119E+03  0.197E-01    3.14       0.0  T
   2   -109.1197036 -0.325461E-03  0.119E-01    3.03       1.0  T
   3   -109.1196873  0.162215E-04  0.495E-02    3.03       1.0  T
   4   -109.1197456 -0.582310E-04  0.954E-03    3.00       1.2  T
   5   -109.1197490 -0.346471E-05  0.471E-03    3.00       2.4  T
   6   -109.1197498 -0.790318E-06  0.236E-03    3.00       4.9  T
   7   -109.1197500 -0.147328E-06  0.695E-04    3.01      16.5  T
   8   -109.1197500 -0.481353E-08  0.350E-04    3.00      32.8  T
     SCC iter.                  ...        0 min,  0.038 sec
     gradient                   ...        0 min,  0.018 sec
 * total energy  :  -107.5973422 Eh     change       -0.2636537E-01 Eh
   gradient norm :     0.0536928 Eh/α   predicted    -0.2219448E-01 ( -15.82%)
   displ. norm   :     0.3890787 α      lambda       -0.1092701E-01
   maximum displ.:     0.1349344 α      in ANC's #31, #98, #26, ...

........................................................................
.............................. CYCLE    3 ..............................
........................................................................

 iter      E             dE          RMSdq      gap      omega  full diag
   1   -109.1852303 -0.109185E+03  0.123E-01    3.23       0.0  T
   2   -109.1853325 -0.102230E-03  0.749E-02    3.19       1.0  T
   3   -109.1853206  0.118484E-04  0.292E-02    3.18       1.0  T
   4   -109.1853450 -0.243681E-04  0.727E-03    3.16       1.6  T
   5   -109.1853478 -0.275226E-05  0.294E-03    3.16       3.9  T
   6   -109.1853482 -0.420940E-06  0.122E-03    3.16       9.4  T
   7   -109.1853482 -0.262602E-07  0.390E-04    3.17      29.4  T
   8   -109.1853482 -0.101309E-08  0.205E-04    3.17      56.1  T
     SCC iter.                  ...        0 min,  0.037 sec
     gradient                   ...        0 min,  0.016 sec
 * total energy  :  -107.6036931 Eh     change       -0.6350910E-02 Eh
   gradient norm :     0.0173929 Eh/α   predicted    -0.6292789E-02 (  -0.92%)
   displ. norm   :     0.2838790 α      lambda       -0.1838332E-02
   maximum displ.:     0.1286143 α      in ANC's #31, #26, #32, ...

........................................................................
.............................. CYCLE    4 ..............................
........................................................................

 iter      E             dE          RMSdq      gap      omega  full diag
   1   -109.1906494 -0.109191E+03  0.553E-02    3.10       0.0  T
   2   -109.1906665 -0.171635E-04  0.333E-02    3.12       1.0  T
   3   -109.1906615  0.501007E-05  0.117E-02    3.12       1.0  T
   4   -109.1906669 -0.541662E-05  0.466E-03    3.12       2.5  T
   5   -109.1906685 -0.159860E-05  0.920E-04    3.12      12.5  T
   6   -109.1906685 -0.112338E-07  0.520E-04    3.12      22.1  T
   7   -109.1906685 -0.423809E-08  0.165E-04    3.12      69.3  T
     SCC iter.                  ...        0 min,  0.035 sec
     gradient                   ...        0 min,  0.015 sec
 * total energy  :  -107.6049837 Eh     change       -0.1290587E-02 Eh
   gradient norm :     0.0078203 Eh/α   predicted    -0.9932836E-03 ( -23.04%)
   displ. norm   :     0.3318731 α      lambda       -0.1081021E-02
   maximum displ.:     0.1277509 α      in ANC's #31, #18, #26, ...

........................................................................
.............................. CYCLE    5 ..............................
........................................................................

 iter      E             dE          RMSdq      gap      omega  full diag
   1   -109.1912982 -0.109191E+03  0.574E-02    3.07       0.0  T
   2   -109.1913037 -0.548601E-05  0.341E-02    3.08       1.0  T
   3   -109.1913004  0.332742E-05  0.808E-03    3.08       1.4  T
   4   -109.1913046 -0.418019E-05  0.249E-03    3.08       4.6  T
   5   -109.1913049 -0.321255E-06  0.103E-03    3.08      11.1  T
   6   -109.1913049 -0.793567E-08  0.505E-04    3.08      22.7  T
   7   -109.1913049 -0.683002E-08  0.162E-04    3.08      70.7  T
     SCC iter.                  ...        0 min,  0.036 sec
     gradient                   ...        0 min,  0.015 sec
 * total energy  :  -107.6056788 Eh     change       -0.6950861E-03 Eh
   gradient norm :     0.0071759 Eh/α   predicted    -0.6000474E-03 ( -13.67%)
   displ. norm   :     0.2796800 α      lambda       -0.5406716E-03
   maximum displ.:     0.1044359 α      in ANC's #18, #9, #23, ...

........................................................................
.............................. CYCLE    6 ..............................
........................................................................

 iter      E             dE          RMSdq      gap      omega  full diag
   1   -109.1907786 -0.109191E+03  0.531E-02    3.06       0.0  T
   2   -109.1907801 -0.149888E-05  0.314E-02    3.06       1.0  T
   3   -109.1907794  0.713171E-06  0.438E-03    3.06       2.6  T
   4   -109.1907806 -0.120451E-05  0.145E-03    3.06       7.9  T
   5   -109.1907807 -0.438023E-07  0.743E-04    3.06      15.4  T
   6   -109.1907807 -0.423061E-08  0.256E-04    3.06      44.8  T
     SCC iter.                  ...        0 min,  0.030 sec
     gradient                   ...        0 min,  0.017 sec
 * total energy  :  -107.6060468 Eh     change       -0.3679588E-03 Eh
   gradient norm :     0.0087958 Eh/α   predicted    -0.2915092E-03 ( -20.78%)
   displ. norm   :     0.3320597 α      lambda       -0.5202484E-03
   maximum displ.:     0.1407391 α      in ANC's #9, #18, #23, ...

........................................................................
.............................. CYCLE    7 ..............................
........................................................................

 iter      E             dE          RMSdq      gap      omega  full diag
   1   -109.1906331 -0.109191E+03  0.579E-02    3.04       0.0  T
   2   -109.1906365 -0.336482E-05  0.343E-02    3.03       1.0  T
   3   -109.1906347  0.181695E-05  0.576E-03    3.03       2.0  T
   4   -109.1906370 -0.236150E-05  0.207E-03    3.03       5.5  T
   5   -109.1906373 -0.252222E-06  0.878E-04    3.03      13.1  T
   6   -109.1906373 -0.135429E-09  0.418E-04    3.03      27.5  T
     SCC iter.                  ...        0 min,  0.030 sec
     gradient                   ...        0 min,  0.016 sec
 * total energy  :  -107.6064247 Eh     change       -0.3779716E-03 Eh
   gradient norm :     0.0070462 Eh/α   predicted    -0.2888135E-03 ( -23.59%)
   displ. norm   :     0.3326350 α      lambda       -0.4407448E-03
   maximum displ.:     0.1527852 α      in ANC's #9, #18, #23, ...

........................................................................
.............................. CYCLE    8 ..............................
........................................................................

 iter      E             dE          RMSdq      gap      omega  full diag
   1   -109.1920117 -0.109192E+03  0.651E-02    3.01       0.0  T
   2   -109.1920146 -0.288719E-05  0.385E-02    3.00       1.0  T
   3   -109.1920132  0.144635E-05  0.521E-03    3.00       2.2  T
   4   -109.1920152 -0.200512E-05  0.195E-03    3.00       5.9  T
   5   -109.1920154 -0.196175E-06  0.877E-04    3.00      13.1  T
   6   -109.1920154 -0.251636E-08  0.379E-04    3.00      30.3  T
     SCC iter.                  ...        0 min,  0.024 sec
     gradient                   ...        0 min,  0.015 sec
 * total energy  :  -107.6067380 Eh     change       -0.3132773E-03 Eh
   gradient norm :     0.0050445 Eh/α   predicted    -0.2447899E-03 ( -21.86%)
   displ. norm   :     0.2632582 α      lambda       -0.2434911E-03
   maximum displ.:     0.1218807 α      in ANC's #9, #4, #10, ...

........................................................................
.............................. CYCLE    9 ..............................
........................................................................

 iter      E             dE          RMSdq      gap      omega  full diag
   1   -109.1935152 -0.109194E+03  0.536E-02    2.99       0.0  T
   2   -109.1935166 -0.143447E-05  0.316E-02    2.99       1.0  T
   3   -109.1935163  0.363570E-06  0.335E-03    2.99       3.4  T
   4   -109.1935170 -0.748405E-06  0.128E-03    2.99       8.9  T
   5   -109.1935171 -0.480089E-07  0.671E-04    2.99      17.1  T
   6   -109.1935171 -0.359587E-08  0.232E-04    2.99      49.5  T
     SCC iter.                  ...        0 min,  0.026 sec
     gradient                   ...        0 min,  0.015 sec
 * total energy  :  -107.6069070 Eh     change       -0.1690286E-03 Eh
   gradient norm :     0.0029212 Eh/α   predicted    -0.1301935E-03 ( -22.98%)
   displ. norm   :     0.2004966 α      lambda       -0.1252670E-03
   maximum displ.:     0.0894421 α      in ANC's #9, #10, #4, ...

........................................................................
.............................. CYCLE   10 ..............................
........................................................................

 iter      E             dE          RMSdq      gap      omega  full diag
   1   -109.1944876 -0.109194E+03  0.447E-02    2.97       0.0  T
   2   -109.1944883 -0.689342E-06  0.262E-02    2.97       1.0  T
   3   -109.1944882  0.103021E-06  0.230E-03    2.97       5.0  T
   4   -109.1944885 -0.327626E-06  0.982E-04    2.97      11.7  T
   5   -109.1944885 -0.265859E-07  0.506E-04    2.97      22.7  T
     SCC iter.                  ...        0 min,  0.022 sec
     gradient                   ...        0 min,  0.019 sec
 * total energy  :  -107.6069968 Eh     change       -0.8978316E-04 Eh
   gradient norm :     0.0025813 Eh/α   predicted    -0.6517446E-04 ( -27.41%)
   displ. norm   :     0.1942902 α      lambda       -0.9993811E-04
   maximum displ.:     0.0839564 α      in ANC's #10, #9, #4, ...

........................................................................
.............................. CYCLE   11 ..............................
........................................................................

 iter      E             dE          RMSdq      gap      omega  full diag
   1   -109.1951724 -0.109195E+03  0.427E-02    2.97       0.0  T
   2   -109.1951729 -0.528691E-06  0.251E-02    2.97       1.0  T
   3   -109.1951727  0.198981E-06  0.248E-03    2.97       4.6  T
   4   -109.1951731 -0.414359E-06  0.813E-04    2.97      14.1  T
   5   -109.1951731 -0.822192E-08  0.462E-04    2.97      24.8  T
     SCC iter.                  ...        0 min,  0.021 sec
     gradient                   ...        0 min,  0.017 sec
 * total energy  :  -107.6070710 Eh     change       -0.7413012E-04 Eh
   gradient norm :     0.0026865 Eh/α   predicted    -0.5185637E-04 ( -30.05%)
   displ. norm   :     0.2444914 α      lambda       -0.1076807E-03
   maximum displ.:     0.1124524 α      in ANC's #10, #4, #9, ...

........................................................................
.............................. CYCLE   12 ..............................
........................................................................

 iter      E             dE          RMSdq      gap      omega  full diag
   1   -109.1946125 -0.109195E+03  0.545E-02    2.95       0.0  T
   2   -109.1946134 -0.921740E-06  0.320E-02    2.95       1.0  T
   3   -109.1946134  0.215784E-07  0.248E-03    2.95       4.6  T
   4   -109.1946137 -0.321017E-06  0.997E-04    2.95      11.5  T
   5   -109.1946137 -0.165907E-07  0.539E-04    2.95      21.3  T
     SCC iter.                  ...        0 min,  0.026 sec
     gradient                   ...        0 min,  0.016 sec
 * total energy  :  -107.6071502 Eh     change       -0.7920852E-04 Eh
   gradient norm :     0.0038084 Eh/α   predicted    -0.5705986E-04 ( -27.96%)
   displ. norm   :     0.2581776 α      lambda       -0.1189958E-03
   maximum displ.:     0.1213566 α      in ANC's #10, #8, #4, ...

........................................................................
.............................. CYCLE   13 ..............................
........................................................................

 iter      E             dE          RMSdq      gap      omega  full diag
   1   -109.1951940 -0.109195E+03  0.519E-02    2.97       0.0  T
   2   -109.1951950 -0.928471E-06  0.305E-02    2.97       1.0  T
   3   -109.1951944  0.588183E-06  0.328E-03    2.97       3.5  T
   4   -109.1951952 -0.863896E-06  0.904E-04    2.97      12.7  T
   5   -109.1951953 -0.238482E-07  0.482E-04    2.97      23.8  T
     SCC iter.                  ...        0 min,  0.023 sec
     gradient                   ...        0 min,  0.017 sec
 * total energy  :  -107.6072300 Eh     change       -0.7980019E-04 Eh
   gradient norm :     0.0038169 Eh/α   predicted    -0.6346474E-04 ( -20.47%)
   displ. norm   :     0.2615060 α      lambda       -0.1015792E-03
   maximum displ.:     0.1311831 α      in ANC's #10, #8, #4, ...

........................................................................
.............................. CYCLE   14 ..............................
........................................................................

 iter      E             dE          RMSdq      gap      omega  full diag
   1   -109.1927692 -0.109193E+03  0.541E-02    2.93       0.0  T
   2   -109.1927705 -0.126893E-05  0.318E-02    2.94       1.0  T
   3   -109.1927700  0.508219E-06  0.383E-03    2.94       3.0  T
   4   -109.1927709 -0.901359E-06  0.990E-04    2.94      11.6  T
   5   -109.1927709 -0.761631E-08  0.607E-04    2.94      18.9  T
     SCC iter.                  ...        0 min,  0.022 sec
     gradient                   ...        0 min,  0.015 sec
 * total energy  :  -107.6072933 Eh     change       -0.6337781E-04 Eh
   gradient norm :     0.0043552 Eh/α   predicted    -0.5426593E-04 ( -14.38%)
   displ. norm   :     0.1796778 α      lambda       -0.8824556E-04
   maximum displ.:     0.0894009 α      in ANC's #10, #8, #16, ...

........................................................................
.............................. CYCLE   15 ..............................
........................................................................

 iter      E             dE          RMSdq      gap      omega  full diag
   1   -109.1942725 -0.109194E+03  0.338E-02    2.96       0.0  T
   2   -109.1942730 -0.532247E-06  0.199E-02    2.96       1.0  T
   3   -109.1942725  0.566850E-06  0.302E-03    2.96       3.8  T
   4   -109.1942732 -0.742659E-06  0.690E-04    2.96      16.6  T
   5   -109.1942732 -0.116672E-07  0.375E-04    2.96      30.6  T
     SCC iter.                  ...        0 min,  0.027 sec
     gradient                   ...        0 min,  0.019 sec
 * total energy  :  -107.6073515 Eh     change       -0.5819951E-04 Eh
   gradient norm :     0.0031476 Eh/α   predicted    -0.4555908E-04 ( -21.72%)
   displ. norm   :     0.1764538 α      lambda       -0.6549092E-04
   maximum displ.:     0.0990212 α      in ANC's #10, #4, #8, ...

........................................................................
.............................. CYCLE   16 ..............................
........................................................................

 iter      E             dE          RMSdq      gap      omega  full diag
   1   -109.1945522 -0.109195E+03  0.329E-02    2.97       0.0  T
   2   -109.1945525 -0.339814E-06  0.193E-02    2.97       1.0  T
   3   -109.1945524  0.129169E-06  0.177E-03    2.97       6.5  T
   4   -109.1945526 -0.233968E-06  0.565E-04    2.97      20.3  T
   5   -109.1945526 -0.811171E-08  0.302E-04    2.97      38.0  T
     SCC iter.                  ...        0 min,  0.023 sec
     gradient                   ...        0 min,  0.015 sec
 * total energy  :  -107.6073999 Eh     change       -0.4833561E-04 Eh
   gradient norm :     0.0023418 Eh/α   predicted    -0.3377103E-04 ( -30.13%)
   displ. norm   :     0.2323239 α      lambda       -0.6750413E-04
   maximum displ.:     0.1292425 α      in ANC's #10, #4, #8, ...

........................................................................
.............................. CYCLE   17 ..............................
........................................................................

 iter      E             dE          RMSdq      gap      omega  full diag
   1   -109.1946314 -0.109195E+03  0.427E-02    2.97       0.0  T
   2   -109.1946319 -0.434425E-06  0.251E-02    2.97       1.0  T
   3   -109.1946319  0.713712E-08  0.173E-03    2.97       6.6  T
   4   -109.1946321 -0.178902E-06  0.738E-04    2.97      15.5  T
   5   -109.1946321 -0.909222E-08  0.370E-04    2.97      31.0  T
     SCC iter.                  ...        0 min,  0.020 sec
     gradient                   ...        0 min,  0.016 sec
 * total energy  :  -107.6074534 Eh     change       -0.5349532E-04 Eh
   gradient norm :     0.0023556 Eh/α   predicted    -0.3557935E-04 ( -33.49%)
   displ. norm   :     0.3056477 α      lambda       -0.8227579E-04
   maximum displ.:     0.1695020 α      in ANC's #10, #4, #8, ...

........................................................................
.............................. CYCLE   18 ..............................
........................................................................

 iter      E             dE          RMSdq      gap      omega  full diag
   1   -109.1946279 -0.109195E+03  0.532E-02    2.98       0.0  T
   2   -109.1946287 -0.865223E-06  0.312E-02    2.98       1.0  T
   3   -109.1946285  0.202347E-06  0.272E-03    2.98       4.2  T
   4   -109.1946290 -0.498129E-06  0.944E-04    2.98      12.1  T
   5   -109.1946291 -0.168687E-07  0.512E-04    2.98      22.4  T
     SCC iter.                  ...        0 min,  0.022 sec
     gradient                   ...        0 min,  0.016 sec
 * total energy  :  -107.6075202 Eh     change       -0.6678562E-04 Eh
   gradient norm :     0.0026214 Eh/α   predicted    -0.4498328E-04 ( -32.65%)
   displ. norm   :     0.4085868 α      lambda       -0.9814859E-04
   maximum displ.:     0.2252064 α      in ANC's #10, #4, #8, ...

........................................................................
.............................. CYCLE   19 ..............................
........................................................................

 iter      E             dE          RMSdq      gap      omega  full diag
   1   -109.1938258 -0.109194E+03  0.705E-02    2.98       0.0  T
   2   -109.1938270 -0.116295E-05  0.414E-02    2.98       1.0  T
   3   -109.1938270  0.589427E-07  0.292E-03    2.98       3.9  T
   4   -109.1938275 -0.538013E-06  0.123E-03    2.98       9.3  T
   5   -109.1938275 -0.230256E-07  0.602E-04    2.98      19.1  T
   6   -109.1938275 -0.579318E-08  0.194E-04    2.98      59.0  T
     SCC iter.                  ...        0 min,  0.026 sec
     gradient                   ...        0 min,  0.015 sec
 * total energy  :  -107.6075992 Eh     change       -0.7904267E-04 Eh
   gradient norm :     0.0031735 Eh/α   predicted    -0.5726880E-04 ( -27.55%)
   displ. norm   :     0.4460334 α      lambda       -0.1100871E-03
   maximum displ.:     0.2426422 α      in ANC's #10, #4, #6, ...

........................................................................
.............................. CYCLE   20 ..............................
........................................................................

 iter      E             dE          RMSdq      gap      omega  full diag
   1   -109.1942373 -0.109194E+03  0.720E-02    3.01       0.0  T
   2   -109.1942389 -0.158631E-05  0.422E-02    3.01       1.0  T
   3   -109.1942385  0.374823E-06  0.374E-03    3.01       3.1  T
   4   -109.1942394 -0.927042E-06  0.128E-03    3.01       8.9  T
   5   -109.1942395 -0.248582E-07  0.687E-04    3.01      16.7  T
   6   -109.1942395 -0.106270E-07  0.228E-04    3.01      50.4  T
     SCC iter.                  ...        0 min,  0.025 sec
     gradient                   ...        0 min,  0.016 sec
 * total energy  :  -107.6076787 Eh     change       -0.7947511E-04 Eh
   gradient norm :     0.0035649 Eh/α   predicted    -0.6599804E-04 ( -16.96%)
   displ. norm   :     0.4257244 α      lambda       -0.8257205E-04
   maximum displ.:     0.2315141 α      in ANC's #10, #4, #8, ...
 * RMSD in coord.:     0.4820875 α      energy gain  -0.3670183E-01 Eh

generating ANC from model Hessian ...
Using Lindh-Hessian (1995)
 Shifting diagonal of input Hessian by    9.9770997305263006E-003
 Lowest  eigenvalues of input Hessian
    0.000000    0.000000    0.000000    0.000000    0.000000    0.000000
    0.010000    0.010027    0.010112    0.010142    0.010345    0.010640
    0.010760    0.011063    0.011128    0.011251    0.011355    0.011508
 Highest eigenvalues
    1.999484    2.000511    2.019442    2.026728    2.027760    2.359896


........................................................................
.............................. CYCLE   21 ..............................
........................................................................

 iter      E             dE          RMSdq      gap      omega  full diag
   1   -109.1927637 -0.109193E+03  0.721E-02    2.99       0.0  T
   2   -109.1927653 -0.162689E-05  0.423E-02    2.99       1.0  T
   3   -109.1927645  0.832991E-06  0.457E-03    2.99       2.5  T
   4   -109.1927659 -0.141564E-05  0.129E-03    3.00       8.9  T
   5   -109.1927659 -0.258336E-07  0.743E-04    3.00      15.4  T
   6   -109.1927660 -0.145987E-07  0.229E-04    3.00      50.2  T
     SCC iter.                  ...        0 min,  0.026 sec
     gradient                   ...        0 min,  0.017 sec
 * total energy  :  -107.6077311 Eh     change       -0.5239234E-04 Eh
   gradient norm :     0.0037270 Eh/α   predicted     0.0000000E+00 (-100.00%)
   displ. norm   :     0.0302429 α      lambda       -0.3524598E-04
   maximum displ.:     0.0124040 α      in ANC's #14, #10, #8, ...

........................................................................
.............................. CYCLE   22 ..............................
........................................................................

 iter      E             dE          RMSdq      gap      omega  full diag
   1   -109.1949369 -0.109195E+03  0.892E-03    3.00       0.0  T
   2   -109.1949371 -0.176344E-06  0.528E-03    3.00       2.2  T
   3   -109.1949369  0.123424E-06  0.155E-03    3.00       7.4  T
   4   -109.1949371 -0.156136E-06  0.366E-04    3.00      31.4  T
   5   -109.1949371 -0.754042E-08  0.170E-04    3.00      67.5  T
     SCC iter.                  ...        0 min,  0.024 sec
     gradient                   ...        0 min,  0.016 sec
 * total energy  :  -107.6077577 Eh     change       -0.2660633E-04 Eh
   gradient norm :     0.0013331 Eh/α   predicted    -0.1804796E-04 ( -32.17%)
   displ. norm   :     0.0889413 α      lambda       -0.3070142E-04
   maximum displ.:     0.0367028 α      in ANC's #14, #10, #8, ...

........................................................................
.............................. CYCLE   23 ..............................
........................................................................

 iter      E             dE          RMSdq      gap      omega  full diag
   1   -109.1971880 -0.109197E+03  0.225E-02    3.00       0.0  T
   2   -109.1971884 -0.397856E-06  0.133E-02    2.99       1.0  T
   3   -109.1971878  0.563701E-06  0.294E-03    2.99       3.9  T
   4   -109.1971886 -0.712016E-06  0.647E-04    2.99      17.7  T
   5   -109.1971886 -0.110636E-07  0.364E-04    2.99      31.5  T
     SCC iter.                  ...        0 min,  0.025 sec
     gradient                   ...        0 min,  0.016 sec
 * total energy  :  -107.6077819 Eh     change       -0.2424728E-04 Eh
   gradient norm :     0.0024193 Eh/α   predicted    -0.1540485E-04 ( -36.47%)
   displ. norm   :     0.0387146 α      lambda       -0.1287981E-04
   maximum displ.:     0.0150610 α      in ANC's #10, #1, #8, ...

........................................................................
.............................. CYCLE   24 ..............................
........................................................................

 iter      E             dE          RMSdq      gap      omega  full diag
   1   -109.1965594 -0.109197E+03  0.934E-03    2.99       0.0  T
   2   -109.1965595 -0.526238E-07  0.551E-03    2.99       2.1  T
   3   -109.1965594  0.657040E-07  0.107E-03    2.99      10.7  T
   4   -109.1965595 -0.891494E-07  0.241E-04    2.99      47.6  T
   5   -109.1965595 -0.589225E-09  0.139E-04    2.99      82.8  T
     SCC iter.                  ...        0 min,  0.024 sec
     gradient                   ...        0 min,  0.017 sec
 * total energy  :  -107.6077934 Eh     change       -0.1150826E-04 Eh
   gradient norm :     0.0017825 Eh/α   predicted    -0.6614051E-05 ( -42.53%)
   displ. norm   :     0.2286942 α      lambda       -0.4155923E-04
   maximum displ.:     0.0976013 α      in ANC's #10, #1, #8, ...

........................................................................
.............................. CYCLE   25 ..............................
........................................................................

 iter      E             dE          RMSdq      gap      omega  full diag
   1   -109.1930376 -0.109193E+03  0.554E-02    2.96       0.0  T
   2   -109.1930392 -0.160043E-05  0.327E-02    2.96       1.0  T
   3   -109.1930372  0.192436E-05  0.562E-03    2.96       2.0  T
   4   -109.1930398 -0.260285E-05  0.132E-03    2.96       8.7  T
   5   -109.1930399 -0.207676E-07  0.744E-04    2.96      15.4  T
   6   -109.1930399 -0.662722E-08  0.228E-04    2.96      50.3  T
     SCC iter.                  ...        0 min,  0.024 sec
     gradient                   ...        0 min,  0.016 sec
 * total energy  :  -107.6078122 Eh     change       -0.1876135E-04 Eh
   gradient norm :     0.0035414 Eh/α   predicted    -0.2127977E-04 (  13.42%)
   displ. norm   :     0.0242107 α      lambda       -0.1514215E-04
   maximum displ.:     0.0144778 α      in ANC's #14, #12, #20, ...

........................................................................
.............................. CYCLE   26 ..............................
........................................................................

 iter      E             dE          RMSdq      gap      omega  full diag
   1   -109.1941415 -0.109194E+03  0.635E-03    2.97       0.0  T
   2   -109.1941416 -0.869136E-07  0.378E-03    2.97       3.0  T
   3   -109.1941416  0.463053E-07  0.104E-03    2.97      11.0  T
   4   -109.1941416 -0.637986E-07  0.226E-04    2.97      50.9  T
   5   -109.1941416 -0.189334E-08  0.117E-04    2.97      98.4  T
     SCC iter.                  ...        0 min,  0.024 sec
     gradient                   ...        0 min,  0.016 sec
 * total energy  :  -107.6078238 Eh     change       -0.1157626E-04 Eh
   gradient norm :     0.0018222 Eh/α   predicted    -0.7577009E-05 ( -34.55%)
   displ. norm   :     0.0701261 α      lambda       -0.1866782E-04
   maximum displ.:     0.0356073 α      in ANC's #14, #10, #6, ...

........................................................................
.............................. CYCLE   27 ..............................
........................................................................

 iter      E             dE          RMSdq      gap      omega  full diag
   1   -109.1963450 -0.109196E+03  0.140E-02    2.98       0.0  T
   2   -109.1963452 -0.228313E-06  0.827E-03    2.98       1.4  T
   3   -109.1963451  0.107522E-06  0.159E-03    2.98       7.2  T
   4   -109.1963453 -0.152401E-06  0.331E-04    2.98      34.7  T
   5   -109.1963453 -0.280235E-08  0.181E-04    2.98      63.4  T
     SCC iter.                  ...        0 min,  0.022 sec
     gradient                   ...        0 min,  0.017 sec
 * total energy  :  -107.6078393 Eh     change       -0.1548967E-04 Eh
   gradient norm :     0.0017064 Eh/α   predicted    -0.9367897E-05 ( -39.52%)
   displ. norm   :     0.0948370 α      lambda       -0.9612888E-05
   maximum displ.:     0.0517771 α      in ANC's #10, #6, #1, ...

........................................................................
.............................. CYCLE   28 ..............................
........................................................................

 iter      E             dE          RMSdq      gap      omega  full diag
   1   -109.1962515 -0.109196E+03  0.203E-02    2.98       0.0  T
   2   -109.1962515 -0.734175E-07  0.119E-02    2.98       1.0  T
   3   -109.1962515  0.765897E-07  0.113E-03    2.98      10.1  T
   4   -109.1962516 -0.115778E-06  0.305E-04    2.98      37.6  T
   5   -109.1962516 -0.602071E-09  0.152E-04    2.98      75.4  T
     SCC iter.                  ...        0 min,  0.022 sec
     gradient                   ...        0 min,  0.018 sec
 * total energy  :  -107.6078527 Eh     change       -0.1345071E-04 Eh
   gradient norm :     0.0015909 Eh/α   predicted    -0.4826084E-05 ( -64.12%)
   displ. norm   :     0.2602185 α      lambda       -0.2691833E-04
   maximum displ.:     0.1410676 α      in ANC's #10, #6, #1, ...

........................................................................
.............................. CYCLE   29 ..............................
........................................................................

 iter      E             dE          RMSdq      gap      omega  full diag
   1   -109.1950636 -0.109195E+03  0.558E-02    2.97       0.0  T
   2   -109.1950642 -0.590222E-06  0.328E-02    2.97       1.0  T
   3   -109.1950636  0.566389E-06  0.314E-03    2.97       3.6  T
   4   -109.1950645 -0.862230E-06  0.853E-04    2.97      13.4  T
   5   -109.1950645 -0.588041E-08  0.455E-04    2.97      25.2  T
     SCC iter.                  ...        0 min,  0.022 sec
     gradient                   ...        0 min,  0.015 sec
 * total energy  :  -107.6078856 Eh     change       -0.3287606E-04 Eh
   gradient norm :     0.0009668 Eh/α   predicted    -0.1386538E-04 ( -57.83%)
   displ. norm   :     0.3387157 α      lambda       -0.2638862E-04
   maximum displ.:     0.1859693 α      in ANC's #10, #6, #1, ...

........................................................................
.............................. CYCLE   30 ..............................
........................................................................

 iter      E             dE          RMSdq      gap      omega  full diag
   1   -109.1936053 -0.109194E+03  0.724E-02    2.96       0.0  T
   2   -109.1936063 -0.918797E-06  0.425E-02    2.96       1.0  T
   3   -109.1936056  0.674855E-06  0.368E-03    2.96       3.1  T
   4   -109.1936067 -0.111403E-05  0.104E-03    2.96      11.0  T
   5   -109.1936067 -0.111654E-07  0.571E-04    2.96      20.1  T
   6   -109.1936067 -0.531485E-08  0.188E-04    2.96      61.0  T
     SCC iter.                  ...        0 min,  0.026 sec
     gradient                   ...        0 min,  0.015 sec
 * total energy  :  -107.6079149 Eh     change       -0.2928895E-04 Eh
   gradient norm :     0.0023352 Eh/α   predicted    -0.1386783E-04 ( -52.65%)
   displ. norm   :     0.1636759 α      lambda       -0.2050091E-04
   maximum displ.:     0.0923778 α      in ANC's #10, #6, #1, ...

........................................................................
.............................. CYCLE   31 ..............................
........................................................................

 iter      E             dE          RMSdq      gap      omega  full diag
   1   -109.1937979 -0.109194E+03  0.346E-02    2.96       0.0  T
   2   -109.1937981 -0.157648E-06  0.203E-02    2.96       1.0  T
   3   -109.1937980  0.845072E-07  0.139E-03    2.96       8.3  T
   4   -109.1937982 -0.160286E-06  0.430E-04    2.96      26.7  T
   5   -109.1937982 -0.194815E-08  0.226E-04    2.96      50.7  T
     SCC iter.                  ...        0 min,  0.022 sec
     gradient                   ...        0 min,  0.015 sec
 * total energy  :  -107.6079332 Eh     change       -0.1835765E-04 Eh
   gradient norm :     0.0020419 Eh/α   predicted    -0.1052585E-04 ( -42.66%)
   displ. norm   :     0.2927311 α      lambda       -0.4152897E-04
   maximum displ.:     0.1659822 α      in ANC's #10, #6, #1, ...

........................................................................
.............................. CYCLE   32 ..............................
........................................................................

 iter      E             dE          RMSdq      gap      omega  full diag
   1   -109.1945560 -0.109195E+03  0.621E-02    2.97       0.0  T
   2   -109.1945564 -0.475740E-06  0.364E-02    2.97       1.0  T
   3   -109.1945562  0.218411E-06  0.234E-03    2.97       4.9  T
   4   -109.1945567 -0.444186E-06  0.721E-04    2.97      15.9  T
   5   -109.1945567 -0.471164E-08  0.376E-04    2.97      30.5  T
     SCC iter.                  ...        0 min,  0.024 sec
     gradient                   ...        0 min,  0.018 sec
 * total energy  :  -107.6079691 Eh     change       -0.3583120E-04 Eh
   gradient norm :     0.0013276 Eh/α   predicted    -0.2254789E-04 ( -37.07%)
   displ. norm   :     0.6770263 α      lambda       -0.5643486E-04
   maximum displ.:     0.3848186 α      in ANC's #10, #6, #1, ...

........................................................................
.............................. CYCLE   33 ..............................
........................................................................

 iter      E             dE          RMSdq      gap      omega  full diag
   1   -109.1934102 -0.109193E+03  0.146E-01    2.96       0.0  T
   2   -109.1934126 -0.240515E-05  0.853E-02    2.97       1.0  T
   3   -109.1934115  0.119710E-05  0.538E-03    2.97       2.1  T
   4   -109.1934138 -0.239732E-05  0.164E-03    2.97       7.0  T
   5   -109.1934139 -0.199757E-07  0.806E-04    2.97      14.2  T
   6   -109.1934139 -0.146268E-07  0.253E-04    2.97      45.4  T
     SCC iter.                  ...        0 min,  0.046 sec
     gradient                   ...        0 min,  0.016 sec
 * total energy  :  -107.6080299 Eh     change       -0.6085001E-04 Eh
   gradient norm :     0.0026803 Eh/α   predicted    -0.3396700E-04 ( -44.18%)
   displ. norm   :     0.3115803 α      lambda       -0.4869723E-04
   maximum displ.:     0.1745840 α      in ANC's #10, #6, #1, ...

........................................................................
.............................. CYCLE   34 ..............................
........................................................................

 iter      E             dE          RMSdq      gap      omega  full diag
   1   -109.1944430 -0.109194E+03  0.664E-02    2.97       0.0  T
   2   -109.1944435 -0.465785E-06  0.390E-02    2.97       1.0  T
   3   -109.1944433  0.229671E-06  0.229E-03    2.97       5.0  T
   4   -109.1944437 -0.452751E-06  0.704E-04    2.97      16.3  T
   5   -109.1944437 -0.517350E-08  0.340E-04    2.97      33.8  T
     SCC iter.                  ...        0 min,  0.030 sec
     gradient                   ...        0 min,  0.016 sec
 * total energy  :  -107.6080694 Eh     change       -0.3949000E-04 Eh
   gradient norm :     0.0020614 Eh/α   predicted    -0.2671259E-04 ( -32.36%)
   displ. norm   :     0.4783957 α      lambda       -0.6055727E-04
   maximum displ.:     0.2665633 α      in ANC's #10, #6, #1, ...

........................................................................
.............................. CYCLE   35 ..............................
........................................................................

 iter      E             dE          RMSdq      gap      omega  full diag
   1   -109.1942663 -0.109194E+03  0.104E-01    2.97       0.0  T
   2   -109.1942673 -0.104295E-05  0.608E-02    2.97       1.0  T
   3   -109.1942669  0.388123E-06  0.330E-03    2.97       3.5  T
   4   -109.1942678 -0.897041E-06  0.106E-03    2.97      10.9  T
   5   -109.1942678 -0.944777E-08  0.496E-04    2.97      23.1  T
   6   -109.1942679 -0.565228E-08  0.145E-04    2.97      79.3  T
     SCC iter.                  ...        0 min,  0.025 sec
     gradient                   ...        0 min,  0.016 sec
 * total energy  :  -107.6081189 Eh     change       -0.4953160E-04 Eh
   gradient norm :     0.0019934 Eh/α   predicted    -0.3721355E-04 ( -24.87%)
   displ. norm   :     0.6737763 α      lambda       -0.8096525E-04
   maximum displ.:     0.3569483 α      in ANC's #10, #1, #6, ...

........................................................................
.............................. CYCLE   36 ..............................
........................................................................

 iter      E             dE          RMSdq      gap      omega  full diag
   1   -109.1975910 -0.109198E+03  0.147E-01    2.98       0.0  T
   2   -109.1975929 -0.189013E-05  0.860E-02    2.98       1.0  T
   3   -109.1975925  0.327089E-06  0.391E-03    2.98       2.9  T
   4   -109.1975938 -0.120251E-05  0.140E-03    2.98       8.2  T
   5   -109.1975938 -0.215923E-07  0.623E-04    2.98      18.4  T
   6   -109.1975938 -0.719236E-08  0.188E-04    2.98      61.0  T
     SCC iter.                  ...        0 min,  0.026 sec
     gradient                   ...        0 min,  0.018 sec
 * total energy  :  -107.6081910 Eh     change       -0.7209962E-04 Eh
   gradient norm :     0.0032713 Eh/α   predicted    -0.4865365E-04 ( -32.52%)
   displ. norm   :     0.7393956 α      lambda       -0.9867791E-04
   maximum displ.:     0.4087503 α      in ANC's #10, #1, #6, ...

........................................................................
.............................. CYCLE   37 ..............................
........................................................................

 iter      E             dE          RMSdq      gap      omega  full diag
   1   -109.1894069 -0.109189E+03  0.167E-01    2.97       0.0  T
   2   -109.1894100 -0.310173E-05  0.977E-02    2.97       1.0  T
   3   -109.1894082  0.182417E-05  0.647E-03    2.97       1.8  T
   4   -109.1894114 -0.319869E-05  0.166E-03    2.97       6.9  T
   5   -109.1894114 -0.220402E-07  0.915E-04    2.97      12.5  T
   6   -109.1894115 -0.200968E-07  0.251E-04    2.97      45.6  T
     SCC iter.                  ...        0 min,  0.028 sec
     gradient                   ...        0 min,  0.017 sec
 * total energy  :  -107.6082046 Eh     change       -0.1356045E-04 Eh
   gradient norm :     0.0059234 Eh/α   predicted    -0.7631571E-04 ( 462.78%)
   displ. norm   :     0.1831861 α      lambda       -0.1285022E-03
   maximum displ.:     0.1020094 α      in ANC's #10, #6, #1, ...

........................................................................
.............................. CYCLE   38 ..............................
........................................................................

 iter      E             dE          RMSdq      gap      omega  full diag
   1   -109.1946184 -0.109195E+03  0.406E-02    2.96       0.0  T
   2   -109.1946188 -0.427520E-06  0.239E-02    2.96       1.0  T
   3   -109.1946182  0.569203E-06  0.305E-03    2.96       3.8  T
   4   -109.1946190 -0.746417E-06  0.584E-04    2.96      19.6  T
   5   -109.1946190 -0.507100E-08  0.347E-04    2.96      33.1  T
     SCC iter.                  ...        0 min,  0.023 sec
     gradient                   ...        0 min,  0.018 sec
 * total energy  :  -107.6082847 Eh     change       -0.8013654E-04 Eh
   gradient norm :     0.0022648 Eh/α   predicted    -0.6642685E-04 ( -17.11%)
   displ. norm   :     0.2651664 α      lambda       -0.9215903E-04
   maximum displ.:     0.1099393 α      in ANC's #10, #1, #8, ...

........................................................................
.............................. CYCLE   39 ..............................
........................................................................

 iter      E             dE          RMSdq      gap      omega  full diag
   1   -109.1965705 -0.109197E+03  0.629E-02    2.96       0.0  T
   2   -109.1965710 -0.428100E-06  0.369E-02    2.96       1.0  T
   3   -109.1965708  0.140381E-06  0.207E-03    2.96       5.5  T
   4   -109.1965712 -0.340163E-06  0.751E-04    2.96      15.3  T
   5   -109.1965712 -0.782862E-08  0.354E-04    2.96      32.4  T
     SCC iter.                  ...        0 min,  0.024 sec
     gradient                   ...        0 min,  0.016 sec
 * total energy  :  -107.6083627 Eh     change       -0.7792902E-04 Eh
   gradient norm :     0.0020012 Eh/α   predicted    -0.4931756E-04 ( -36.71%)
   displ. norm   :     0.6554791 α      lambda       -0.1604193E-03
   maximum displ.:     0.2991050 α      in ANC's #10, #1, #8, ...

........................................................................
.............................. CYCLE   40 ..............................
........................................................................

 iter      E             dE          RMSdq      gap      omega  full diag
   1   -109.1948457 -0.109195E+03  0.156E-01    2.95       0.0  T
   2   -109.1948478 -0.213616E-05  0.915E-02    2.95       1.0  T
   3   -109.1948471  0.691264E-06  0.473E-03    2.95       2.4  T
   4   -109.1948489 -0.179237E-05  0.166E-03    2.95       6.9  T
   5   -109.1948490 -0.175664E-07  0.737E-04    2.95      15.6  T
   6   -109.1948490 -0.159620E-07  0.214E-04    2.95      53.6  T
     SCC iter.                  ...        0 min,  0.027 sec
     gradient                   ...        0 min,  0.015 sec
 * total energy  :  -107.6084942 Eh     change       -0.1315496E-03 Eh
   gradient norm :     0.0029745 Eh/α   predicted    -0.1146551E-03 ( -12.84%)
   displ. norm   :     0.6406265 α      lambda       -0.1277705E-03
   maximum displ.:     0.2911040 α      in ANC's #10, #1, #8, ...

........................................................................
.............................. CYCLE   41 ..............................
........................................................................

 iter      E             dE          RMSdq      gap      omega  full diag
   1   -109.1909504 -0.109191E+03  0.153E-01    2.95       0.0  T
   2   -109.1909528 -0.235731E-05  0.899E-02    2.95       1.0  T
   3   -109.1909519  0.935116E-06  0.508E-03    2.95       2.3  T
   4   -109.1909539 -0.203520E-05  0.169E-03    2.95       6.8  T
   5   -109.1909539 -0.367775E-07  0.855E-04    2.95      13.4  T
   6   -109.1909539 -0.134356E-07  0.274E-04    2.95      41.9  T
     SCC iter.                  ...        0 min,  0.027 sec
     gradient                   ...        0 min,  0.015 sec
 * total energy  :  -107.6085748 Eh     change       -0.8057308E-04 Eh
   gradient norm :     0.0045694 Eh/α   predicted    -0.9009573E-04 (  11.82%)
   displ. norm   :     0.2444868 α      lambda       -0.9310487E-04
   maximum displ.:     0.0924304 α      in ANC's #13, #1, #5, ...

........................................................................
.............................. CYCLE   42 ..............................
........................................................................

 iter      E             dE          RMSdq      gap      omega  full diag
   1   -109.1937519 -0.109194E+03  0.595E-02    2.95       0.0  T
   2   -109.1937529 -0.102783E-05  0.349E-02    2.95       1.0  T
   3   -109.1937524  0.519956E-06  0.335E-03    2.95       3.4  T
   4   -109.1937532 -0.813954E-06  0.106E-03    2.95      10.8  T
   5   -109.1937532 -0.408531E-07  0.567E-04    2.95      20.2  T
   6   -109.1937532 -0.355861E-08  0.245E-04    2.95      46.8  T
     SCC iter.                  ...        0 min,  0.026 sec
     gradient                   ...        0 min,  0.016 sec
 * total energy  :  -107.6086352 Eh     change       -0.6046146E-04 Eh
   gradient norm :     0.0029286 Eh/α   predicted    -0.4933618E-04 ( -18.40%)
   displ. norm   :     0.4082378 α      lambda       -0.8565410E-04
   maximum displ.:     0.1735434 α      in ANC's #1, #10, #8, ...
 * RMSD in coord.:     0.6860967 α      energy gain  -0.9565675E-03 Eh

generating ANC from model Hessian ...
Using Lindh-Hessian (1995)
 Shifting diagonal of input Hessian by    9.9736994542089473E-003
 Lowest  eigenvalues of input Hessian
    0.000000    0.000000    0.000000    0.000000    0.000000    0.000000
    0.010000    0.010027    0.010098    0.010151    0.010315    0.010557
    0.010742    0.011049    0.011077    0.011180    0.011279    0.011532
 Highest eigenvalues
    1.996757    1.999160    2.018228    2.025545    2.026269    2.362542


........................................................................
.............................. CYCLE   43 ..............................
........................................................................

 iter      E             dE          RMSdq      gap      omega  full diag
   1   -109.1930507 -0.109193E+03  0.959E-02    2.94       0.0  T
   2   -109.1930517 -0.966909E-06  0.562E-02    2.94       1.0  T
   3   -109.1930514  0.326866E-06  0.313E-03    2.95       3.7  T
   4   -109.1930521 -0.768875E-06  0.105E-03    2.95      10.9  T
   5   -109.1930522 -0.100283E-07  0.526E-04    2.95      21.8  T
   6   -109.1930522 -0.570901E-08  0.174E-04    2.94      65.8  T
     SCC iter.                  ...        0 min,  0.027 sec
     gradient                   ...        0 min,  0.015 sec
 * total energy  :  -107.6086975 Eh     change       -0.6228703E-04 Eh
   gradient norm :     0.0042364 Eh/α   predicted     0.0000000E+00 (-100.00%)
   displ. norm   :     0.0393116 α      lambda       -0.4955700E-04
   maximum displ.:     0.0232310 α      in ANC's #14, #8, #11, ...

........................................................................
.............................. CYCLE   44 ..............................
........................................................................

 iter      E             dE          RMSdq      gap      omega  full diag
   1   -109.1957088 -0.109196E+03  0.108E-02    2.95       0.0  T
   2   -109.1957091 -0.280933E-06  0.634E-03    2.95       1.8  T
   3   -109.1957090  0.113165E-06  0.164E-03    2.95       7.0  T
   4   -109.1957091 -0.135140E-06  0.460E-04    2.95      24.9  T
   5   -109.1957092 -0.163832E-07  0.148E-04    2.95      77.5  T
     SCC iter.                  ...        0 min,  0.022 sec
     gradient                   ...        0 min,  0.019 sec
 * total energy  :  -107.6087358 Eh     change       -0.3824759E-04 Eh
   gradient norm :     0.0013559 Eh/α   predicted    -0.2629633E-04 ( -31.25%)
   displ. norm   :     0.1130989 α      lambda       -0.4187229E-04
   maximum displ.:     0.0628398 α      in ANC's #14, #8, #11, ...

........................................................................
.............................. CYCLE   45 ..............................
........................................................................

 iter      E             dE          RMSdq      gap      omega  full diag
   1   -109.1983875 -0.109198E+03  0.264E-02    2.96       0.0  T
   2   -109.1983884 -0.873453E-06  0.155E-02    2.96       1.0  T
   3   -109.1983878  0.584254E-06  0.324E-03    2.96       3.5  T
   4   -109.1983885 -0.695322E-06  0.841E-04    2.96      13.6  T
   5   -109.1983886 -0.526401E-07  0.318E-04    2.96      36.1  T
     SCC iter.                  ...        0 min,  0.022 sec
     gradient                   ...        0 min,  0.016 sec
 * total energy  :  -107.6087692 Eh     change       -0.3337041E-04 Eh
   gradient norm :     0.0029783 Eh/α   predicted    -0.2105822E-04 ( -36.90%)
   displ. norm   :     0.0555709 α      lambda       -0.2085692E-04
   maximum displ.:     0.0245252 α      in ANC's #14, #11, #8, ...

........................................................................
.............................. CYCLE   46 ..............................
........................................................................

 iter      E             dE          RMSdq      gap      omega  full diag
   1   -109.1977255 -0.109198E+03  0.135E-02    2.96       0.0  T
   2   -109.1977255 -0.421284E-07  0.797E-03    2.96       1.4  T
   3   -109.1977254  0.877805E-07  0.108E-03    2.96      10.6  T
   4   -109.1977255 -0.109636E-06  0.225E-04    2.96      50.9  T
   5   -109.1977255 -0.659909E-09  0.129E-04    2.96      89.1  T
     SCC iter.                  ...        0 min,  0.024 sec
     gradient                   ...        0 min,  0.016 sec
 * total energy  :  -107.6087874 Eh     change       -0.1820298E-04 Eh
   gradient norm :     0.0024245 Eh/α   predicted    -0.1062421E-04 ( -41.63%)
   displ. norm   :     0.2038229 α      lambda       -0.6322037E-04
   maximum displ.:     0.0847027 α      in ANC's #11, #9, #8, ...

........................................................................
.............................. CYCLE   47 ..............................
........................................................................

 iter      E             dE          RMSdq      gap      omega  full diag
   1   -109.1951456 -0.109195E+03  0.513E-02    2.97       0.0  T
   2   -109.1951461 -0.511348E-06  0.301E-02    2.97       1.0  T
   3   -109.1951454  0.777995E-06  0.330E-03    2.97       3.5  T
   4   -109.1951464 -0.101599E-05  0.761E-04    2.97      15.1  T
   5   -109.1951464 -0.773612E-08  0.417E-04    2.97      27.5  T
   6   -109.1951464 -0.292982E-08  0.149E-04    2.97      76.9  T
     SCC iter.                  ...        0 min,  0.030 sec
     gradient                   ...        0 min,  0.016 sec
 * total energy  :  -107.6088240 Eh     change       -0.3668632E-04 Eh
   gradient norm :     0.0014466 Eh/α   predicted    -0.3295241E-04 ( -10.18%)
   displ. norm   :     0.1141977 α      lambda       -0.1473754E-04
   maximum displ.:     0.0537657 α      in ANC's #11, #9, #8, ...

........................................................................
.............................. CYCLE   48 ..............................
........................................................................

 iter      E             dE          RMSdq      gap      omega  full diag
   1   -109.1948741 -0.109195E+03  0.302E-02    2.97       0.0  T
   2   -109.1948742 -0.183725E-06  0.177E-02    2.97       1.0  T
   3   -109.1948742  0.857495E-07  0.129E-03    2.98       8.9  T
   4   -109.1948743 -0.131902E-06  0.425E-04    2.98      27.0  T
   5   -109.1948743 -0.792684E-08  0.216E-04    2.98      53.2  T
     SCC iter.                  ...        0 min,  0.021 sec
     gradient                   ...        0 min,  0.015 sec
 * total energy  :  -107.6088427 Eh     change       -0.1865242E-04 Eh
   gradient norm :     0.0015126 Eh/α   predicted    -0.7450205E-05 ( -60.06%)
   displ. norm   :     0.2413886 α      lambda       -0.4006508E-04
   maximum displ.:     0.1132221 α      in ANC's #11, #9, #3, ...

........................................................................
.............................. CYCLE   49 ..............................
........................................................................

 iter      E             dE          RMSdq      gap      omega  full diag
   1   -109.1955830 -0.109196E+03  0.632E-02    2.98       0.0  T
   2   -109.1955837 -0.709160E-06  0.371E-02    2.98       1.0  T
   3   -109.1955835  0.149523E-06  0.219E-03    2.98       5.2  T
   4   -109.1955839 -0.321522E-06  0.731E-04    2.98      15.7  T
   5   -109.1955839 -0.173968E-07  0.386E-04    2.98      29.7  T
     SCC iter.                  ...        0 min,  0.023 sec
     gradient                   ...        0 min,  0.015 sec
 * total energy  :  -107.6088911 Eh     change       -0.4836663E-04 Eh
   gradient norm :     0.0027677 Eh/α   predicted    -0.2055351E-04 ( -57.50%)
   displ. norm   :     0.3036125 α      lambda       -0.5683065E-04
   maximum displ.:     0.1446928 α      in ANC's #11, #9, #3, ...

........................................................................
.............................. CYCLE   50 ..............................
........................................................................

 iter      E             dE          RMSdq      gap      omega  full diag
   1   -109.1949069 -0.109195E+03  0.802E-02    2.99       0.0  T
   2   -109.1949075 -0.563403E-06  0.470E-02    2.99       1.0  T
   3   -109.1949075  0.186219E-09  0.194E-03    2.99       5.9  T
   4   -109.1949077 -0.235793E-06  0.765E-04    2.99      15.0  T
   5   -109.1949077 -0.557165E-08  0.371E-04    2.99      30.9  T
     SCC iter.                  ...        0 min,  0.023 sec
     gradient                   ...        0 min,  0.018 sec
 * total energy  :  -107.6089396 Eh     change       -0.4851508E-04 Eh
   gradient norm :     0.0030673 Eh/α   predicted    -0.3106670E-04 ( -35.96%)
   displ. norm   :     0.4273134 α      lambda       -0.7710807E-04
   maximum displ.:     0.2048666 α      in ANC's #11, #9, #3, ...

........................................................................
.............................. CYCLE   51 ..............................
........................................................................

 iter      E             dE          RMSdq      gap      omega  full diag
   1   -109.1939158 -0.109194E+03  0.112E-01    2.99       0.0  T
   2   -109.1939167 -0.937833E-06  0.658E-02    2.99       1.0  T
   3   -109.1939168 -0.151910E-06  0.226E-03    2.99       5.1  T
   4   -109.1939171 -0.274540E-06  0.101E-03    2.99      11.3  T
   5   -109.1939171 -0.720675E-08  0.415E-04    2.99      27.6  T
   6   -109.1939171 -0.387121E-08  0.133E-04    2.99      86.3  T
     SCC iter.                  ...        0 min,  0.026 sec
     gradient                   ...        0 min,  0.016 sec
 * total energy  :  -107.6089996 Eh     change       -0.6006756E-04 Eh
   gradient norm :     0.0037489 Eh/α   predicted    -0.4560309E-04 ( -24.08%)
   displ. norm   :     0.3862749 α      lambda       -0.7748165E-04
   maximum displ.:     0.1861951 α      in ANC's #11, #3, #9, ...

........................................................................
.............................. CYCLE   52 ..............................
........................................................................

 iter      E             dE          RMSdq      gap      omega  full diag
   1   -109.1938430 -0.109194E+03  0.997E-02    2.99       0.0  T
   2   -109.1938438 -0.756279E-06  0.585E-02    2.99       1.0  T
   3   -109.1938439 -0.106558E-06  0.196E-03    2.99       5.8  T
   4   -109.1938441 -0.218100E-06  0.923E-04    2.99      12.4  T
   5   -109.1938441 -0.153078E-07  0.396E-04    2.99      29.0  T
     SCC iter.                  ...        0 min,  0.021 sec
     gradient                   ...        0 min,  0.017 sec
 * total energy  :  -107.6090612 Eh     change       -0.6155002E-04 Eh
   gradient norm :     0.0035469 Eh/α   predicted    -0.4452257E-04 ( -27.66%)
   displ. norm   :     0.3738174 α      lambda       -0.1037524E-03
   maximum displ.:     0.1790088 α      in ANC's #11, #3, #6, ...

........................................................................
.............................. CYCLE   53 ..............................
........................................................................

 iter      E             dE          RMSdq      gap      omega  full diag
   1   -109.1955593 -0.109196E+03  0.941E-02    2.98       0.0  T
   2   -109.1955603 -0.951584E-06  0.552E-02    2.98       1.0  T
   3   -109.1955602  0.126639E-06  0.249E-03    2.98       4.6  T
   4   -109.1955606 -0.439434E-06  0.977E-04    2.98      11.7  T
   5   -109.1955606 -0.307049E-07  0.481E-04    2.98      23.8  T
     SCC iter.                  ...        0 min,  0.023 sec
     gradient                   ...        0 min,  0.016 sec
 * total energy  :  -107.6091417 Eh     change       -0.8050140E-04 Eh
   gradient norm :     0.0018682 Eh/α   predicted    -0.5912802E-04 ( -26.55%)
   displ. norm   :     0.9390469 α      lambda       -0.1225115E-03
   maximum displ.:     0.4542295 α      in ANC's #11, #3, #6, ...

........................................................................
.............................. CYCLE   54 ..............................
........................................................................

 iter      E             dE          RMSdq      gap      omega  full diag
   1   -109.1886484 -0.109189E+03  0.246E-01    2.98       0.0  T
   2   -109.1886539 -0.554056E-05  0.144E-01    2.98       1.0  T
   3   -109.1886527  0.116129E-05  0.674E-03    2.98       1.7  T
   4   -109.1886561 -0.331890E-05  0.232E-03    2.98       5.0  T
   5   -109.1886561 -0.892570E-07  0.120E-03    2.98       9.6  T
   6   -109.1886562 -0.229611E-07  0.461E-04    2.98      24.9  T
   7   -109.1886562 -0.980060E-08  0.128E-04    2.98      89.8  T
     SCC iter.                  ...        0 min,  0.032 sec
     gradient                   ...        0 min,  0.016 sec
 * total energy  :  -107.6091762 Eh     change       -0.3453453E-04 Eh
   gradient norm :     0.0086540 Eh/α   predicted    -0.8526558E-04 ( 146.90%)
   displ. norm   :     0.1362188 α      lambda       -0.2679478E-03
   maximum displ.:     0.0547965 α      in ANC's #14, #7, #6, ...

........................................................................
.............................. CYCLE   55 ..............................
........................................................................

 iter      E             dE          RMSdq      gap      omega  full diag
   1   -109.1959966 -0.109196E+03  0.301E-02    2.98       0.0  T
   2   -109.1959975 -0.902415E-06  0.180E-02    2.98       1.0  T
   3   -109.1959966  0.926945E-06  0.426E-03    2.97       2.7  T
   4   -109.1959978 -0.122384E-05  0.753E-04    2.97      15.2  T
   5   -109.1959978 -0.745129E-08  0.432E-04    2.97      26.6  T
   6   -109.1959978 -0.329061E-08  0.194E-04    2.97      59.2  T
     SCC iter.                  ...        0 min,  0.029 sec
     gradient                   ...        0 min,  0.015 sec
 * total energy  :  -107.6093179 Eh     change       -0.1416766E-03 Eh
   gradient norm :     0.0050164 Eh/α   predicted    -0.1364635E-03 (  -3.68%)
   displ. norm   :     0.2081910 α      lambda       -0.5550010E-04
   maximum displ.:     0.0906714 α      in ANC's #6, #11, #3, ...

........................................................................
.............................. CYCLE   56 ..............................
........................................................................

 iter      E             dE          RMSdq      gap      omega  full diag
   1   -109.1958562 -0.109196E+03  0.512E-02    2.97       0.0  T
   2   -109.1958565 -0.310731E-06  0.301E-02    2.97       1.0  T
   3   -109.1958564  0.148461E-06  0.186E-03    2.97       6.2  T
   4   -109.1958566 -0.271732E-06  0.590E-04    2.97      19.5  T
   5   -109.1958566 -0.664494E-08  0.298E-04    2.97      38.5  T
     SCC iter.                  ...        0 min,  0.025 sec
     gradient                   ...        0 min,  0.018 sec
 * total energy  :  -107.6093662 Eh     change       -0.4825996E-04 Eh
   gradient norm :     0.0038840 Eh/α   predicted    -0.2895193E-04 ( -40.01%)
   displ. norm   :     0.4795116 α      lambda       -0.1312177E-03
   maximum displ.:     0.2150311 α      in ANC's #6, #11, #3, ...

........................................................................
.............................. CYCLE   57 ..............................
........................................................................

 iter      E             dE          RMSdq      gap      omega  full diag
   1   -109.1944776 -0.109194E+03  0.119E-01    2.96       0.0  T
   2   -109.1944800 -0.241758E-05  0.697E-02    2.96       1.0  T
   3   -109.1944792  0.749439E-06  0.436E-03    2.97       2.6  T
   4   -109.1944806 -0.135286E-05  0.151E-03    2.96       7.6  T
   5   -109.1944807 -0.903108E-07  0.736E-04    2.96      15.6  T
   6   -109.1944807 -0.223740E-08  0.307E-04    2.96      37.4  T
     SCC iter.                  ...        0 min,  0.028 sec
     gradient                   ...        0 min,  0.015 sec
 * total energy  :  -107.6094560 Eh     change       -0.8983054E-04 Eh
   gradient norm :     0.0026067 Eh/α   predicted    -0.8068949E-04 ( -10.18%)
   displ. norm   :     0.2604501 α      lambda       -0.6309289E-04
   maximum displ.:     0.1200007 α      in ANC's #6, #8, #7, ...

........................................................................
.............................. CYCLE   58 ..............................
........................................................................

 iter      E             dE          RMSdq      gap      omega  full diag
   1   -109.1951507 -0.109195E+03  0.616E-02    2.97       0.0  T
   2   -109.1951516 -0.952746E-06  0.362E-02    2.97       1.0  T
   3   -109.1951513  0.280313E-06  0.265E-03    2.97       4.3  T
   4   -109.1951518 -0.469705E-06  0.897E-04    2.97      12.8  T
   5   -109.1951518 -0.358462E-07  0.434E-04    2.97      26.4  T
     SCC iter.                  ...        0 min,  0.024 sec
     gradient                   ...        0 min,  0.016 sec
 * total energy  :  -107.6094994 Eh     change       -0.4345515E-04 Eh
   gradient norm :     0.0030920 Eh/α   predicted    -0.3368592E-04 ( -22.48%)
   displ. norm   :     0.2920314 α      lambda       -0.5801932E-04
   maximum displ.:     0.1306437 α      in ANC's #6, #8, #7, ...

........................................................................
.............................. CYCLE   59 ..............................
........................................................................

 iter      E             dE          RMSdq      gap      omega  full diag
   1   -109.1954182 -0.109195E+03  0.704E-02    2.97       0.0  T
   2   -109.1954188 -0.575530E-06  0.413E-02    2.97       1.0  T
   3   -109.1954188  0.288609E-07  0.199E-03    2.97       5.8  T
   4   -109.1954190 -0.238625E-06  0.786E-04    2.97      14.6  T
   5   -109.1954190 -0.106205E-07  0.396E-04    2.97      29.0  T
     SCC iter.                  ...        0 min,  0.023 sec
     gradient                   ...        0 min,  0.016 sec
 * total energy  :  -107.6095437 Eh     change       -0.4423839E-04 Eh
   gradient norm :     0.0036281 Eh/α   predicted    -0.3148681E-04 ( -28.82%)
   displ. norm   :     0.3280606 α      lambda       -0.9173235E-04
   maximum displ.:     0.1564952 α      in ANC's #8, #7, #6, ...

........................................................................
.............................. CYCLE   60 ..............................
........................................................................

 iter      E             dE          RMSdq      gap      omega  full diag
   1   -109.1969412 -0.109197E+03  0.764E-02    2.98       0.0  T
   2   -109.1969419 -0.718948E-06  0.448E-02    2.98       1.0  T
   3   -109.1969418  0.173545E-06  0.249E-03    2.98       4.6  T
   4   -109.1969422 -0.467352E-06  0.880E-04    2.98      13.0  T
   5   -109.1969422 -0.119007E-07  0.435E-04    2.98      26.3  T
     SCC iter.                  ...        0 min,  0.022 sec
     gradient                   ...        0 min,  0.017 sec
 * total energy  :  -107.6096186 Eh     change       -0.7493737E-04 Eh
   gradient norm :     0.0032155 Eh/α   predicted    -0.5080197E-04 ( -32.21%)
   displ. norm   :     0.5782894 α      lambda       -0.1474627E-03
   maximum displ.:     0.2806650 α      in ANC's #8, #7, #6, ...

........................................................................
.............................. CYCLE   61 ..............................
........................................................................

 iter      E             dE          RMSdq      gap      omega  full diag
   1   -109.1938340 -0.109194E+03  0.140E-01    2.98       0.0  T
   2   -109.1938365 -0.247235E-05  0.822E-02    2.98       1.0  T
   3   -109.1938358  0.745332E-06  0.474E-03    2.98       2.4  T
   4   -109.1938374 -0.167822E-05  0.156E-03    2.99       7.4  T
   5   -109.1938375 -0.455233E-07  0.773E-04    2.99      14.8  T
   6   -109.1938375 -0.826270E-08  0.263E-04    2.98      43.6  T
     SCC iter.                  ...        0 min,  0.028 sec
     gradient                   ...        0 min,  0.017 sec
 * total energy  :  -107.6097276 Eh     change       -0.1089780E-03 Eh
   gradient norm :     0.0045360 Eh/α   predicted    -0.9838463E-04 (  -9.72%)
   displ. norm   :     0.4954833 α      lambda       -0.2410738E-03
   maximum displ.:     0.2708295 α      in ANC's #8, #7, #10, ...

........................................................................
.............................. CYCLE   62 ..............................
........................................................................

 iter      E             dE          RMSdq      gap      omega  full diag
   1   -109.1989667 -0.109199E+03  0.998E-02    3.00       0.0  T
   2   -109.1989714 -0.468412E-05  0.586E-02    3.00       1.0  T
   3   -109.1989672  0.420411E-05  0.835E-03    3.00       1.4  T
   4   -109.1989728 -0.562369E-05  0.199E-03    3.00       5.8  T
   5   -109.1989729 -0.120739E-06  0.100E-03    3.00      11.4  T
   6   -109.1989730 -0.108592E-07  0.434E-04    3.00      26.4  T
   7   -109.1989730 -0.562518E-08  0.130E-04    3.00      88.5  T
     SCC iter.                  ...        0 min,  0.027 sec
     gradient                   ...        0 min,  0.017 sec
 * total energy  :  -107.6098007 Eh     change       -0.7314546E-04 Eh
   gradient norm :     0.0062654 Eh/α   predicted    -0.1501298E-03 ( 105.25%)
   displ. norm   :     0.4099157 α      lambda       -0.1829503E-03
   maximum displ.:     0.1902611 α      in ANC's #8, #6, #7, ...

........................................................................
[...]
       100                         -0.2263760              -6.1600
       101                         -0.2236230              -6.0851
       102                         -0.2215913              -6.0298
       103                         -0.2215867              -6.0297
       104                         -0.2196437              -5.9768
       105                         -0.2162862              -5.8854
       106                         -0.0989385              -2.6923
       107                         -0.0944052              -2.5689
       108                         -0.0901085              -2.4520
       109                          0.0147782               0.4021
       ...                                ...                  ...
       187                          0.6707399              18.2518
      -------------------------------------------------------------
                  HL-Gap            0.1115338 Eh            3.0350 eV
             Fermi-level           -0.2917348 Eh           -7.9385 eV

     #   Z          covCN         q      C6AA      α(0)
     1   6 C        3.761    -0.106    22.576     6.773
     2   6 C        3.906     0.000    20.519     6.439
     3   6 C        3.761    -0.106    22.581     6.774
     4   6 C        2.979     0.010    27.790     8.647
     5   6 C        2.922    -0.036    28.904     8.816
     6   6 C        2.925    -0.040    28.989     8.830
     7   6 C        2.969    -0.006    28.158     8.704
     8   6 C        2.923    -0.033    28.830     8.805
     9   6 C        2.926    -0.038    28.942     8.823
    10   6 C        3.730     0.109    18.881     6.203
    11   6 C        3.804    -0.077    21.964     6.672
    12   6 C        3.802    -0.057    21.597     6.616
    13   6 C        3.753     0.011    20.444     6.447
    14   7 N        2.731    -0.181    24.908     7.412
    15   6 C        3.765     0.014    20.379     6.434
    16   6 C        3.809    -0.060    21.653     6.624
    17   6 C        3.858    -0.026    21.003     6.518
    18   6 C        3.808    -0.066    21.751     6.639
    19   6 C        3.763     0.017    20.334     6.428
    20   6 C        3.784     0.129    18.500     6.127
    21   6 C        2.974     0.009    27.803     8.649
    22   6 C        2.924    -0.029    28.725     8.789
    23   6 C        2.920    -0.031    28.779     8.797
    24   6 C        2.919    -0.032    28.808     8.802
    25   6 C        2.920    -0.032    28.788     8.799
    26   6 C        2.923    -0.038    28.934     8.821
    27   6 C        2.970    -0.007    28.198     8.710
    28   6 C        2.927    -0.029    28.726     8.790
    29   6 C        2.919    -0.030    28.749     8.793
    30   6 C        2.919    -0.031    28.775     8.797
    31   6 C        2.920    -0.031    28.780     8.797
    32   6 C        2.922    -0.042    29.033     8.836
    33   8 O        1.655    -0.446    21.760     6.297
    34   8 O        1.656    -0.445    21.739     6.294
    35   6 C        2.705     0.362    20.855     7.475
    36   8 O        0.856    -0.409    21.866     6.269
    37   8 O        1.659    -0.377    20.406     6.098
    38   1 H        0.925     0.054     2.270     2.356
    39   1 H        0.925     0.042     2.425     2.435
    40   1 H        0.925     0.049     2.329     2.386
    41   1 H        0.925     0.042     2.419     2.432
    42   1 H        0.925     0.053     2.286     2.365
    43   1 H        0.925     0.051     2.303     2.373
    44   1 H        0.926     0.040     2.449     2.447
    45   1 H        0.926     0.030     2.592     2.518
    46   1 H        0.926     0.039     2.462     2.454
    47   1 H        0.926     0.031     2.572     2.508
    48   1 H        0.924     0.046     2.375     2.410
    49   1 H        0.924     0.063     2.166     2.302
    50   1 H        0.925     0.035     2.512     2.478
    51   1 H        0.924     0.028     2.611     2.527
    52   1 H        0.924     0.032     2.558     2.501
    53   1 H        0.923     0.007     2.944     2.683
    54   1 H        0.924     0.033     2.549     2.497
    55   1 H        0.924     0.028     2.619     2.531
    56   1 H        0.922     0.003     2.999     2.708
    57   1 H        0.924     0.034     2.528     2.487
    58   1 H        0.925     0.047     2.353     2.399
    59   1 H        0.924     0.041     2.432     2.439
    60   1 H        0.925     0.036     2.501     2.473
    61   1 H        0.925     0.035     2.511     2.478
    62   1 H        0.924     0.028     2.621     2.532
    63   1 H        0.923     0.006     2.955     2.688
    64   1 H        0.926     0.053     2.281     2.362
    65   1 H        0.926     0.030     2.579     2.511
    66   1 H        0.926     0.029     2.601     2.522
    67   1 H        0.926     0.029     2.606     2.524
    68   1 H        0.926     0.028     2.613     2.528
    69   1 H        0.926     0.038     2.477     2.461
    70   1 H        0.926     0.031     2.574     2.509
    71   1 H        0.926     0.030     2.580     2.512
    72   1 H        0.926     0.035     2.516     2.480
    73   1 H        0.926     0.038     2.470     2.458
    74   1 H        0.805     0.285     0.768     1.377
    75   1 H        0.805     0.290     0.752     1.362
    76   1 H        0.804     0.328     0.642     1.259

 Mol. C6AA /au·bohr⁶  :      59062.578952
 Mol. C8AA /au·bohr⁸  :    1378667.701321
 Mol. α(0) /au        :        375.815292


Wiberg/Mayer (AO) data.
largest (>0.10) Wiberg bond orders for each atom

 ---------------------------------------------------------------------------
     #   Z sym  total        # sym  WBO       # sym  WBO       # sym  WBO
 ---------------------------------------------------------------------------
     1   6 C    3.993 --    39 H    0.985    38 H    0.984     2 C    0.982
                            40 H    0.981
     2   6 C    3.989 --     3 C    0.986     1 C    0.982     4 C    0.970
                            35 C    0.936
     3   6 C    3.993 --    41 H    0.986     2 C    0.986    43 H    0.984
                            42 H    0.983
     4   6 C    3.986 --     5 C    1.410     9 C    1.410     2 C    0.970
                             7 C    0.106
     5   6 C    3.992 --     6 C    1.451     4 C    1.410    44 H    0.966
                             8 C    0.106
     6   6 C    3.991 --     5 C    1.451     7 C    1.406    45 H    0.969
                             9 C    0.111
     7   6 C    3.986 --     8 C    1.414     6 C    1.406    10 C    0.984
                             4 C    0.106
     8   6 C    3.992 --     9 C    1.447     7 C    1.414    46 H    0.966
                             5 C    0.106
     9   6 C    3.992 --     8 C    1.447     4 C    1.410    47 H    0.967
                             6 C    0.111
    10   6 C    3.956 --    34 O    0.996     7 C    0.984    11 C    0.971
                            48 H    0.953
    11   6 C    3.993 --    12 C    1.009    50 H    0.977    10 C    0.971
                            49 H    0.968
    12   6 C    3.998 --    11 C    1.009    13 C    0.999    52 H    0.977
                            51 H    0.967
    13   6 C    3.989 --    14 N    1.006    12 C    0.999    54 H    0.973
                            53 H    0.965
    14   7 N    3.130 --    19 C    1.006    13 C    1.006    15 C    1.002
    15   6 C    3.987 --    14 N    1.002    16 C    0.999    55 H    0.975
                            56 H    0.967
    16   6 C    3.995 --    15 C    0.999    17 C    0.998    57 H    0.978
                            58 H    0.974
    17   6 C    3.993 --    18 C    0.999    16 C    0.998    59 H    0.958
                            20 C    0.947
    18   6 C    3.996 --    17 C    0.999    19 C    0.994    61 H    0.976
                            60 H    0.971
    19   6 C    3.989 --    14 N    1.006    18 C    0.994    62 H    0.973
                            63 H    0.967
    20   6 C    3.946 --    21 C    0.978    27 C    0.966    33 O    0.962
                            17 C    0.947
    21   6 C    3.987 --    22 C    1.417    26 C    1.405    20 C    0.978
                            24 C    0.110
    22   6 C    3.990 --    23 C    1.440    21 C    1.417    64 H    0.966
                            25 C    0.110
    23   6 C    3.992 --    24 C    1.442    22 C    1.440    65 H    0.971
                            26 C    0.111
    24   6 C    3.992 --    23 C    1.442    25 C    1.435    66 H    0.971
                            21 C    0.110
    25   6 C    3.992 --    26 C    1.447    24 C    1.435    67 H    0.971
                            22 C    0.110
    26   6 C    3.992 --    25 C    1.447    21 C    1.405    68 H    0.967
                            23 C    0.111
    27   6 C    3.986 --    32 C    1.425    28 C    1.405    20 C    0.966
                            30 C    0.111
    28   6 C    3.992 --    29 C    1.454    27 C    1.405    69 H    0.968
                            31 C    0.113
    29   6 C    3.992 --    28 C    1.454    30 C    1.431    70 H    0.971
                            32 C    0.109
    30   6 C    3.992 --    31 C    1.447    29 C    1.431    71 H    0.971
                            27 C    0.111
    31   6 C    3.992 --    30 C    1.447    32 C    1.434    72 H    0.971
                            28 C    0.113
    32   6 C    3.991 --    31 C    1.434    27 C    1.425    73 H    0.962
                            29 C    0.109
    33   8 O    1.968 --    20 C    0.962    74 H    0.900
    34   8 O    1.968 --    10 C    0.996    75 H    0.892
    35   6 C    3.904 --    36 O    1.771    37 O    1.132     2 C    0.936
    36   8 O    2.042 --    35 C    1.771    37 O    0.171
    37   8 O    2.199 --    35 C    1.132    76 H    0.867    36 O    0.171
    38   1 H    0.997 --     1 C    0.984
    39   1 H    0.998 --     1 C    0.985
    40   1 H    0.998 --     1 C    0.981
    41   1 H    0.998 --     3 C    0.986
    42   1 H    0.996 --     3 C    0.983
    43   1 H    0.997 --     3 C    0.984
    44   1 H    0.998 --     5 C    0.966
    45   1 H    0.999 --     6 C    0.969
    46   1 H    0.998 --     8 C    0.966
    47   1 H    0.999 --     9 C    0.967
    48   1 H    0.997 --    10 C    0.953
    49   1 H    0.995 --    11 C    0.968
    50   1 H    0.999 --    11 C    0.977
    51   1 H    0.999 --    12 C    0.967
    52   1 H    0.999 --    12 C    0.977
    53   1 H    1.000 --    13 C    0.965
    54   1 H    0.999 --    13 C    0.973
    55   1 H    0.999 --    15 C    0.975
    56   1 H    1.000 --    15 C    0.967
    57   1 H    0.999 --    16 C    0.978
    58   1 H    0.997 --    16 C    0.974
    59   1 H    0.997 --    17 C    0.958
    60   1 H    0.998 --    18 C    0.971
    61   1 H    0.999 --    18 C    0.976
    62   1 H    0.999 --    19 C    0.973
    63   1 H    1.000 --    19 C    0.967
    64   1 H    0.997 --    22 C    0.966
    65   1 H    0.999 --    23 C    0.971
    66   1 H    0.999 --    24 C    0.971
    67   1 H    0.999 --    25 C    0.971
    68   1 H    0.999 --    26 C    0.967
    69   1 H    0.999 --    28 C    0.968
    70   1 H    0.999 --    29 C    0.971
    71   1 H    0.998 --    30 C    0.971
    72   1 H    0.998 --    31 C    0.971
    73   1 H    0.998 --    32 C    0.962
    74   1 H    0.918 --    33 O    0.900
    75   1 H    0.916 --    34 O    0.892
    76   1 H    0.892 --    37 O    0.867
 ---------------------------------------------------------------------------

Topologies differ in total number of bonds
Writing topology from bond orders to xtbtopo.mol

molecular dipole:
                 x           y           z       tot (Debye)
 q only:        0.107      -0.224      -0.737
   full:        0.408       0.037      -0.745       2.161
molecular quadrupole (traceless):
                xx          xy          yy          xz          yz          zz
 q only:      -11.456     -10.564       6.924     -17.875      -0.932       4.532
  q+dip:      -12.703     -15.473       5.583     -16.810      -2.333       7.120
   full:      -13.591     -13.959       7.582     -17.556      -2.416       6.009

           -------------------------------------------------
          |                Geometry Summary                 |
           -------------------------------------------------

      molecular mass/u    :      501.6575609
   center of mass at/Å    :       -0.0106618      -0.1480252       0.2383939
  moments of inertia/u·Å² :        0.2174127E+04   0.1441822E+05   0.1534975E+05
rotational constants/cm⁻¹ :        0.7753749E-02   0.1169190E-02   0.1098235E-02

 * 72 selected distances

     #   Z          #   Z                                           value/Å
     1   6 C        2   6 C                                       1.5328522
     2   6 C        3   6 C                                       1.5324978
     4   6 C        5   6 C                                       1.3881858
     5   6 C        6   6 C                                       1.3824162
     6   6 C        7   6 C                                       1.3888020
     7   6 C        8   6 C                                       1.3871352
     4   6 C        9   6 C                                       1.3906151
     8   6 C        9   6 C                                       1.3822220
    11   6 C       12   6 C                                       1.5284960
    12   6 C       13   6 C                                       1.5313202
    13   6 C       14   7 N                                       1.4491091
    14   7 N       15   6 C                                       1.4523202
    15   6 C       16   6 C                                       1.5343584
    16   6 C       17   6 C                                       1.5300556
    17   6 C       18   6 C                                       1.5307329
    14   7 N       19   6 C                                       1.4491049
    18   6 C       19   6 C                                       1.5389348 (max)
    21   6 C       22   6 C                                       1.3879399
    22   6 C       23   6 C                                       1.3839126
    23   6 C       24   6 C                                       1.3836547
    24   6 C       25   6 C                                       1.3846648
    21   6 C       26   6 C                                       1.3911583
    25   6 C       26   6 C                                       1.3832198
    27   6 C       28   6 C                                       1.3933699
    28   6 C       29   6 C                                       1.3814223
    29   6 C       30   6 C                                       1.3850649
    30   6 C       31   6 C                                       1.3823804
    27   6 C       32   6 C                                       1.3886010
    31   6 C       32   6 C                                       1.3859655
    20   6 C       33   8 O                                       1.4296266
    10   6 C       34   8 O                                       1.4085006
    35   6 C       36   8 O                                       1.2011957
    35   6 C       37   8 O                                       1.3385754
     1   6 C       38   1 H                                       1.0869509
     1   6 C       39   1 H                                       1.0885826
     1   6 C       40   1 H                                       1.0871115
     3   6 C       41   1 H                                       1.0873716
     3   6 C       42   1 H                                       1.0871054
     3   6 C       43   1 H                                       1.0864683
     5   6 C       44   1 H                                       1.0781165
     6   6 C       45   1 H                                       1.0805633
     8   6 C       46   1 H                                       1.0801558
     9   6 C       47   1 H                                       1.0810267
    10   6 C       48   1 H                                       1.0976187
    11   6 C       49   1 H                                       1.0913593
    11   6 C       50   1 H                                       1.0901518
    12   6 C       51   1 H                                       1.0925433
    12   6 C       52   1 H                                       1.0915492
    13   6 C       53   1 H                                       1.1036510
    13   6 C       54   1 H                                       1.0930739
    15   6 C       55   1 H                                       1.0948027
    15   6 C       56   1 H                                       1.1050054
    16   6 C       57   1 H                                       1.0911154
    16   6 C       58   1 H                                       1.0895280
    17   6 C       59   1 H                                       1.0953483
    18   6 C       60   1 H                                       1.0899289
    18   6 C       61   1 H                                       1.0898810
    19   6 C       62   1 H                                       1.0906255
    19   6 C       63   1 H                                       1.1045683
    22   6 C       64   1 H                                       1.0778678
    23   6 C       65   1 H                                       1.0804431
    24   6 C       66   1 H                                       1.0802741
    25   6 C       67   1 H                                       1.0805058
    26   6 C       68   1 H                                       1.0806200
    28   6 C       69   1 H                                       1.0799646
    29   6 C       70   1 H                                       1.0801716
    30   6 C       71   1 H                                       1.0800362
    31   6 C       72   1 H                                       1.0801711
    32   6 C       73   1 H                                       1.0783841
    33   8 O       74   1 H                                       0.9635380 (min)
    34   8 O       75   1 H                                       0.9639019
    37   8 O       76   1 H                                       0.9701809

 * 5 distinct bonds (by element types)

   Z      Z             #   av. dist./Å        max./Å        min./Å
   1 H    6 C          36     1.0875734     1.1050054     1.0778678
   6 C    6 C          26     1.4311530     1.5389348     1.3814223
   6 C    7 N           3     1.4501781     1.4523202     1.4491049
   1 H    8 O           3     0.9658736     0.9701809     0.9635380
   6 C    8 O           4     1.3444746     1.4296266     1.2011957


optimized geometry written to: xtbopt.xyz


           -------------------------------------------------
          | TOTAL ENERGY             -107.612795253052 Eh   |
          | GRADIENT NORM               0.000544263224 Eh/α |
          | HOMO-LUMO GAP               3.034988803132 eV   |
           -------------------------------------------------
########################################################################
[WARNING] Runtime exception occurred
-2- restart_readRestart: Dimension missmatch in restart file.
-1- restart_readRestart: Number of electron missmatch in restart file.
########################################################################

------------------------------------------------------------------------
 * finished run on 2024/09/17 at 17:38:46.200     
------------------------------------------------------------------------
 total:
 * wall-time:     0 d,  0 h,  0 min,  6.381 sec
 *  cpu-time:     0 d,  0 h,  0 min, 48.714 sec
 * ratio c/w:     7.634 speedup
 SCF:
 * wall-time:     0 d,  0 h,  0 min,  0.120 sec
 *  cpu-time:     0 d,  0 h,  0 min,  0.776 sec
 * ratio c/w:     6.491 speedup
 ANC optimizer:
 * wall-time:     0 d,  0 h,  0 min,  6.019 sec
 *  cpu-time:     0 d,  0 h,  0 min, 46.313 sec
 * ratio c/w:     7.694 speedup

