************************************************************
This is node18.cluster of cluster Pinconning.
Date: Wed Jun 19 17:51:40 PDT 2019
************************************************************
 Set GAUSS_MDEF to "32GB".
 Set GAUSS_PDEF to "12".
 Entering Gaussian System, Link 0=gdv
 Initial command:
 /opt/gaussian/gdv-20170407-i10+/gdv/local/l1.exe "/tmp/673936.1.allnodes.q/Gau-31327.inp" -scrdir="/tmp/673936.1.allnodes.q/"
 Default is to use a total of  12 processors:
                               12 via shared-memory
                                1 via Linda
 Entering Link 1 = /opt/gaussian/gdv-20170407-i10+/gdv/local/l1.exe PID=     31328.
  
 Copyright (c) 1988-2017, Gaussian, Inc.  All Rights Reserved.
  
 This is the private, development version of
 the Gaussian(R) DV system of programs. It is based on
 the Gaussian(R) 16 system (copyright 2016, Gaussian, Inc.),
 the Gaussian(R) 09 system (copyright 2009, Gaussian, Inc.),
 the Gaussian(R) 03 system (copyright 2003, Gaussian, Inc.),
 the Gaussian(R) 98 system (copyright 1998, Gaussian, Inc.),
 the Gaussian(R) 94 system (copyright 1995, Gaussian, Inc.),
 the Gaussian 92(TM) system (copyright 1992, Gaussian, Inc.),
 the Gaussian 90(TM) system (copyright 1990, Gaussian, Inc.),
 the Gaussian 88(TM) system (copyright 1988, Gaussian, Inc.),
 the Gaussian 86(TM) system (copyright 1986, Carnegie Mellon
 University), and the Gaussian 82(TM) system (copyright 1983,
 Carnegie Mellon University). Gaussian is a federally registered
 trademark of Gaussian, Inc.
  
 This software contains proprietary and confidential information,
 including trade secrets, belonging to Gaussian, Inc.
  
 This software is provided under written license and may be
 used, copied, transmitted, or stored only in accord with that
 written license.
  
 The following legend is applicable only to US Government
 contracts under FAR:
  
                    RESTRICTED RIGHTS LEGEND
  
 Use, reproduction and disclosure by the US Government is
 subject to restrictions as set forth in subparagraphs (a)
 and (c) of the Commercial Computer Software - Restricted
 Rights clause in FAR 52.227-19.
  
 Gaussian, Inc.
 340 Quinnipiac St., Bldg. 40, Wallingford CT 06492
  
  
 ---------------------------------------------------------------
 Warning -- This program may not be used in any manner that
 competes with the business of Gaussian, Inc. or will provide
 assistance to any competitor of Gaussian, Inc.  The licensee
 of this program is prohibited from giving any competitor of
 Gaussian, Inc. access to this program.  By using this program,
 the user acknowledges that Gaussian, Inc. is engaged in the
 business of creating and licensing software in the field of
 computational chemistry and represents and warrants to the
 licensee that it is not a competitor of Gaussian, Inc. and that
 it will not use this program in any manner prohibited above.
 ---------------------------------------------------------------
  

 Cite this work as:
 Gaussian Development Version, Revision I.10+,
 M. J. Frisch, G. W. Trucks, H. B. Schlegel, G. E. Scuseria, 
 M. A. Robb, J. R. Cheeseman, G. Scalmani, V. Barone, 
 G. A. Petersson, H. Nakatsuji, X. Li, M. Caricato, A. V. Marenich, 
 J. Bloino, B. G. Janesko, R. Gomperts, B. Mennucci, H. P. Hratchian, 
 J. V. Ortiz, A. F. Izmaylov, J. L. Sonnenberg, D. Williams-Young, 
 F. Ding, F. Lipparini, F. Egidi, J. Goings, B. Peng, A. Petrone, 
 T. Henderson, D. Ranasinghe, V. G. Zakrzewski, J. Gao, N. Rega, 
 G. Zheng, W. Liang, M. Hada, M. Ehara, K. Toyota, R. Fukuda, 
 J. Hasegawa, M. Ishida, T. Nakajima, Y. Honda, O. Kitao, H. Nakai, 
 T. Vreven, K. Throssell, J. A. Montgomery, Jr., J. E. Peralta, 
 F. Ogliaro, M. J. Bearpark, J. J. Heyd, E. N. Brothers, K. N. Kudin, 
 V. N. Staroverov, T. A. Keith, R. Kobayashi, J. Normand, 
 K. Raghavachari, A. P. Rendell, J. C. Burant, S. S. Iyengar, 
 J. Tomasi, M. Cossi, J. M. Millam, M. Klene, C. Adamo, R. Cammi, 
 J. W. Ochterski, R. L. Martin, K. Morokuma, O. Farkas, 
 J. B. Foresman, and D. J. Fox, Gaussian, Inc., Wallingford CT, 2016.
 
 *******************************************
 Gaussian DV:  ES64L-GDVRevI.10+ 27-Mar-2017
                 19-Jun-2019 
 *******************************************
 %chk=3-1-5-oso.chk
 ----------------------------------------------------------------------
 #p ub3lyp/6-311+G* scf=(novaracc,maxcycles=512) int=(acc2e=12,grid=ult
 rafine) opt freq
 ----------------------------------------------------------------------
 1/18=20,19=15,26=4,38=1/1,3;
 2/9=110,12=2,17=6,18=5,40=1/2;
 3/5=4,6=6,7=11,11=2,25=1,27=12,30=1,71=1,74=-5,75=-5,116=2/1,2,3;
 4//1;
 5/5=2,7=512,38=1,87=12/2;
 6/7=2,8=2,9=2,10=2,28=1,87=12/1;
 7/87=12/1,2,3,16;
 1/18=20,19=15,26=4/3(2);
 2/9=110/2;
 99//99;
 2/9=110/2;
 3/5=4,6=6,7=11,11=2,25=1,27=12,30=1,71=1,74=-5,75=-5,116=2/1,2,3;
 4/5=5,16=3,69=1/1;
 5/5=2,7=512,38=1,87=12/2;
 7/87=12/1,2,3,16;
 1/18=20,19=15,26=4/3(-5);
 2/9=110/2;
 6/7=2,8=2,9=2,10=2,19=2,28=1,87=12/1;
 99/9=1/99;
 Leave Link    1 at Wed Jun 19 17:51:40 2019, MaxMem=           0 cpu:               0.5 elap:               0.0
 (Enter /opt/gaussian/gdv-20170407-i10+/gdv/l101.exe)
 -------------------
 Title Card Required
 -------------------
 Symbolic Z-matrix:
 Charge = -1 Multiplicity = 5
 B                     1.4219   -0.0993    0. 
 B                     1.6306   -1.5817    0. 
 B                     0.1195   -1.3316    0. 
 B                    -1.2654   -0.4461    0. 
 B                    -1.5544    1.0395    0. 
 B                     0.        0.6977    0. 
 Li                   -0.5869    2.8691    0. 
 
 Add atom      5 valence  3 ND=      1 dihedral       4      5      6      7
 ITRead=  0  0  0  0  0  0  0
 MicOpt= -1 -1 -1 -1 -1 -1 -1
 NAtoms=      7 NQM=        7 NQMF=       0 NMMI=      0 NMMIF=      0
                NMic=       0 NMicF=      0.
                    Isotopes and Nuclear Properties:
 (Nuclear quadrupole moments (NQMom) in fm**2, nuclear magnetic moments (NMagM)
  in nuclear magnetons)

  Atom         1           2           3           4           5           6           7
 IAtWgt=          11          11          11          11          11          11           7
 AtmWgt=  11.0093053  11.0093053  11.0093053  11.0093053  11.0093053  11.0093053   7.0160045
 NucSpn=           3           3           3           3           3           3           3
 AtZEff=  -0.0000000  -0.0000000  -0.0000000  -0.0000000  -0.0000000  -0.0000000  -0.0000000
 NQMom=    4.0590000   4.0590000   4.0590000   4.0590000   4.0590000   4.0590000  -4.0100000
 NMagM=    2.6886370   2.6886370   2.6886370   2.6886370   2.6886370   2.6886370   3.2564240
 AtZNuc=   5.0000000   5.0000000   5.0000000   5.0000000   5.0000000   5.0000000   3.0000000
 Leave Link  101 at Wed Jun 19 17:51:41 2019, MaxMem=  4294967296 cpu:               5.1 elap:               0.5
 (Enter /opt/gaussian/gdv-20170407-i10+/gdv/l103.exe)

 GradGradGradGradGradGradGradGradGradGradGradGradGradGradGradGradGradGrad
 Berny optimization.
 Initialization pass.
                           ----------------------------
                           !    Initial Parameters    !
                           ! (Angstroms and Degrees)  !
 --------------------------                            --------------------------
 ! Name  Definition              Value          Derivative Info.                !
 --------------------------------------------------------------------------------
 ! R1    R(1,2)                  1.497          estimate D2E/DX2                !
 ! R2    R(1,3)                  1.793          estimate D2E/DX2                !
 ! R3    R(1,6)                  1.63           estimate D2E/DX2                !
 ! R4    R(2,3)                  1.5317         estimate D2E/DX2                !
 ! R5    R(3,4)                  1.6438         estimate D2E/DX2                !
 ! R6    R(4,5)                  1.5134         estimate D2E/DX2                !
 ! R7    R(4,6)                  1.7057         estimate D2E/DX2                !
 ! R8    R(5,6)                  1.5915         estimate D2E/DX2                !
 ! R9    R(5,7)                  2.0697         estimate D2E/DX2                !
 ! R10   R(6,7)                  2.2493         estimate D2E/DX2                !
 ! A1    A(2,1,6)              127.2851         estimate D2E/DX2                !
 ! A2    A(3,1,6)               72.6872         estimate D2E/DX2                !
 ! A3    A(1,3,4)              103.9895         estimate D2E/DX2                !
 ! A4    A(2,3,4)              156.803          estimate D2E/DX2                !
 ! A5    A(3,4,5)              133.6032         estimate D2E/DX2                !
 ! A6    A(3,4,6)               74.7053         estimate D2E/DX2                !
 ! A7    A(4,5,7)              141.1214         estimate D2E/DX2                !
 ! A8    A(1,6,4)              108.6181         estimate D2E/DX2                !
 ! A9    A(1,6,5)              163.1301         estimate D2E/DX2                !
 ! A10   A(1,6,7)              134.3963         estimate D2E/DX2                !
 ! A11   A(4,6,7)              116.9857         estimate D2E/DX2                !
 ! D1    D(6,1,3,4)              0.0            estimate D2E/DX2                !
 ! D2    D(2,1,6,4)              0.0            estimate D2E/DX2                !
 ! D3    D(2,1,6,5)              0.0            estimate D2E/DX2                !
 ! D4    D(2,1,6,7)            180.0            estimate D2E/DX2                !
 ! D5    D(3,1,6,4)              0.0            estimate D2E/DX2                !
 ! D6    D(3,1,6,5)              0.0            estimate D2E/DX2                !
 ! D7    D(3,1,6,7)            180.0            estimate D2E/DX2                !
 ! D8    D(1,3,4,5)              0.0            estimate D2E/DX2                !
 ! D9    D(1,3,4,6)              0.0            estimate D2E/DX2                !
 ! D10   D(2,3,4,5)              0.0            estimate D2E/DX2                !
 ! D11   D(2,3,4,6)              0.0            estimate D2E/DX2                !
 ! D12   D(3,4,5,7)              0.0            estimate D2E/DX2                !
 ! D13   D(3,4,6,1)              0.0            estimate D2E/DX2                !
 ! D14   D(3,4,6,7)            180.0            estimate D2E/DX2                !
 ! D15   D(4,5,6,7)            180.0            estimate D2E/DX2                !
 --------------------------------------------------------------------------------
 Trust Radius=3.00D-01 FncErr=1.00D-07 GrdErr=1.00D-06 EigMax=2.50D+02 EigMin=1.00D-04
 Number of steps in this run=     46 maximum allowed number of steps=    100.
 GradGradGradGradGradGradGradGradGradGradGradGradGradGradGradGradGradGrad

 Leave Link  103 at Wed Jun 19 17:51:41 2019, MaxMem=  4294967296 cpu:               0.1 elap:               0.0
 (Enter /opt/gaussian/gdv-20170407-i10+/gdv/l202.exe)
                          Input orientation:                          
 ---------------------------------------------------------------------
 Center     Atomic      Atomic             Coordinates (Angstroms)
 Number     Number       Type             X           Y           Z
 ---------------------------------------------------------------------
      1          5           0        1.421900   -0.099300    0.000000
      2          5           0        1.630600   -1.581700    0.000000
      3          5           0        0.119500   -1.331600    0.000000
      4          5           0       -1.265400   -0.446100    0.000000
      5          5           0       -1.554400    1.039500    0.000000
      6          5           0        0.000000    0.697700    0.000000
      7          3           0       -0.586900    2.869100    0.000000
 ---------------------------------------------------------------------
                    Distance matrix (angstroms):
                    1          2          3          4          5
     1  B    0.000000
     2  B    1.497019   0.000000
     3  B    1.792989   1.531657   0.000000
     4  B    2.709585   3.110692   1.643794   0.000000
     5  B    3.186727   4.124914   2.902423   1.513449   0.000000
     6  B    1.630033   2.802592   2.032815   1.705730   1.591536
     7  Li   3.584226   4.972618   4.259681   3.383920   2.069660
                    6          7
     6  B    0.000000
     7  Li   2.249318   0.000000
 Stoichiometry    B6Li(1-,5)
 Framework group  CS[SG(B6Li)]
 Deg. of freedom    11
 Full point group                 CS      NOp   2
 Largest Abelian subgroup         CS      NOp   2
 Largest concise Abelian subgroup C1      NOp   1
                         Standard orientation:                         
 ---------------------------------------------------------------------
 Center     Atomic      Atomic             Coordinates (Angstroms)
 Number     Number       Type             X           Y           Z
 ---------------------------------------------------------------------
      1          5           0        1.421890   -0.099312   -0.000000
      2          5           0        1.630570   -1.581715   -0.000000
      3          5           0        0.119474   -1.331595   -0.000000
      4          5           0       -1.265415   -0.446077    0.000000
      5          5           0       -1.554396    1.039526    0.000000
      6          5           0       -0.000000    0.697706    0.000000
      7          3           0       -0.586872    2.869114    0.000000
 ---------------------------------------------------------------------
 Rotational constants (GHZ):           9.2319143           3.0092143           2.2694647
 Leave Link  202 at Wed Jun 19 17:51:41 2019, MaxMem=  4294967296 cpu:               0.1 elap:               0.0
 (Enter /opt/gaussian/gdv-20170407-i10+/gdv/l301.exe)
 Standard basis: 6-311+G(d) (5D, 7F)
 Ernie: Thresh=  0.10000D-02 Tol=  0.10000D-05 Strict=F.
 There are   119 symmetry adapted cartesian basis functions of A'  symmetry.
 There are    42 symmetry adapted cartesian basis functions of A"  symmetry.
 There are   112 symmetry adapted basis functions of A'  symmetry.
 There are    42 symmetry adapted basis functions of A"  symmetry.
   154 basis functions,   252 primitive gaussians,   161 cartesian basis functions
    19 alpha electrons       15 beta electrons
       nuclear repulsion energy       113.4911603841 Hartrees.
 IExCor=  402 DFT=T Ex+Corr=B3LYP ExCW=0 ScaHFX=  0.200000
 ScaDFX=  0.800000  0.720000  1.000000  0.810000 ScalE2=  1.000000  1.000000
 IRadAn=      5 IRanWt=     -1 IRanGd=            0 ICorTp=0 IEmpDi=  4
 NAtoms=    7 NActive=    7 NUniq=    7 SFac= 1.00D+00 NAtFMM=   60 NAOKFM=F Big=F
 Integral buffers will be    131072 words long.
 Raffenetti 2 integral format.
 Two-electron integral symmetry is turned on.
 Leave Link  301 at Wed Jun 19 17:51:41 2019, MaxMem=  4294967296 cpu:               0.7 elap:               0.1
 (Enter /opt/gaussian/gdv-20170407-i10+/gdv/l302.exe)
 NPDir=0 NMtPBC=     1 NCelOv=     1 NCel=       1 NClECP=     1 NCelD=      1
         NCelK=      1 NCelE2=     1 NClLst=     1 CellRange=     0.0.
 One-electron integrals computed using PRISM.
 One-electron integral symmetry used in STVInt
 NBasis=   154 RedAO= T EigKep=  1.52D-06  NBF=   112    42
 NBsUse=   154 1.00D-06 EigRej= -1.00D+00 NBFU=   112    42
 Precomputing XC quadrature grid using
 IXCGrd= 4 IRadAn=           5 IRanWt=          -1 IRanGd=           0 AccXCQ= 1.00D-12.
 Generated NRdTot=       0 NPtTot=           0 NUsed=           0 NTot=          32
 NSgBfM=   161   161   161   161   161 MxSgAt=     7 MxSgA2=     7.
 Leave Link  302 at Wed Jun 19 17:51:41 2019, MaxMem=  4294967296 cpu:               1.9 elap:               0.2
 (Enter /opt/gaussian/gdv-20170407-i10+/gdv/l303.exe)
 DipDrv:  MaxL=1.
 Leave Link  303 at Wed Jun 19 17:51:41 2019, MaxMem=  4294967296 cpu:               0.3 elap:               0.1
 (Enter /opt/gaussian/gdv-20170407-i10+/gdv/l401.exe)
 ExpMin= 7.40D-03 ExpMax= 2.86D+03 ExpMxC= 4.28D+02 IAcc=3 IRadAn=         5 AccDes= 0.00D+00
 Harris functional with IExCor=  402 and IRadAn=       5 diagonalized for initial guess.
 HarFok:  IExCor=  402 AccDes= 0.00D+00 IRadAn=         5 IDoV= 1 UseB2=F ITyADJ=14
 ICtDFT=  3500011 ScaDFX=  1.000000  1.000000  1.000000  1.000000
 FoFCou: FMM=F IPFlag=           0 FMFlag=      100000 FMFlg1=           0
         NFxFlg=           0 DoJE=T BraDBF=F KetDBF=T FulRan=T
         wScrn=  0.000000 ICntrl=       500 IOpCl=  0 I1Cent=   200000004 NGrid=           0
         NMat0=    1 NMatS0=      1 NMatT0=    0 NMatD0=    1 NMtDS0=    0 NMtDT0=    0
 Petite list used in FoFCou.
 Harris En= -156.598843699395    
 JPrj=0 DoOrth=F DoCkMO=F.
 Initial guess orbital symmetries:
 Alpha Orbitals:
       Occupied  (A') (A') (A') (A') (A') (A') (A') (A') (A') (A')
                 (A') (A') (A") (A') (A') (A") (A') (A') (A")
       Virtual   (A') (A") (A') (A") (A') (A') (A") (A') (A') (A')
                 (A") (A') (A') (A") (A') (A") (A') (A') (A') (A")
                 (A') (A') (A') (A") (A') (A") (A") (A') (A') (A')
                 (A') (A") (A') (A") (A') (A') (A') (A') (A') (A')
                 (A') (A') (A') (A') (A') (A') (A') (A') (A") (A')
                 (A") (A') (A') (A") (A") (A') (A") (A') (A') (A')
                 (A") (A") (A') (A') (A") (A') (A") (A') (A') (A')
                 (A') (A') (A') (A") (A') (A') (A') (A') (A") (A")
                 (A') (A') (A') (A") (A") (A') (A') (A') (A") (A')
                 (A') (A") (A') (A') (A") (A") (A') (A") (A') (A')
                 (A') (A') (A') (A") (A") (A') (A') (A") (A') (A')
                 (A") (A") (A') (A") (A") (A') (A") (A') (A') (A')
                 (A') (A') (A') (A') (A') (A') (A') (A') (A') (A')
                 (A') (A') (A') (A') (A')
 Beta  Orbitals:
       Occupied  (A') (A') (A') (A') (A') (A') (A') (A') (A') (A')
                 (A') (A') (A") (A') (A')
       Virtual   (A") (A') (A') (A") (A') (A") (A') (A") (A') (A')
                 (A") (A') (A') (A') (A") (A') (A') (A") (A') (A")
                 (A') (A') (A') (A") (A') (A') (A') (A") (A') (A")
                 (A") (A') (A') (A') (A') (A") (A') (A") (A') (A')
                 (A') (A') (A') (A') (A') (A') (A') (A') (A') (A')
                 (A') (A') (A") (A') (A") (A') (A') (A") (A") (A')
                 (A") (A') (A') (A') (A") (A") (A') (A') (A") (A')
                 (A") (A') (A') (A') (A') (A') (A') (A") (A') (A')
                 (A') (A') (A") (A") (A') (A') (A') (A") (A") (A')
                 (A') (A') (A") (A') (A') (A") (A') (A') (A") (A")
                 (A') (A") (A') (A') (A') (A') (A') (A") (A") (A')
                 (A') (A") (A') (A') (A") (A") (A') (A") (A") (A')
                 (A") (A') (A') (A') (A') (A') (A') (A') (A') (A')
                 (A') (A') (A') (A') (A') (A') (A') (A') (A')
 The electronic state of the initial guess is 5-A'.
 Initial guess <Sx>= 0.0000 <Sy>= 0.0000 <Sz>= 2.0000 <S**2>= 6.0000 S= 2.0000
 Leave Link  401 at Wed Jun 19 17:51:42 2019, MaxMem=  4294967296 cpu:               4.0 elap:               0.4
 (Enter /opt/gaussian/gdv-20170407-i10+/gdv/l502.exe)
 Keep R1 and R2 ints in memory in symmetry-blocked form, NReq=111667571.
 FoFCou: FMM=F IPFlag=           0 FMFlag=           0 FMFlg1=           0
         NFxFlg=           0 DoJE=F BraDBF=F KetDBF=F FulRan=T
         wScrn=  0.000000 ICntrl=       600 IOpCl=  0 I1Cent=           0 NGrid=           0
         NMat0=    1 NMatS0=  11935 NMatT0=    0 NMatD0=    1 NMtDS0=    0 NMtDT0=    0
 Petite list used in FoFCou.
 UHF open shell SCF:
 Using DIIS extrapolation, IDIIS=  1040.
 NGot=  4294967296 LenX=  4220458826 LenY=  4220432464
 Requested convergence on RMS density matrix=1.00D-08 within 512 cycles.
 Requested convergence on MAX density matrix=1.00D-06.
 Requested convergence on             energy=1.00D-06.
 No special actions if energy rises.

 Cycle   1  Pass 1  IDiag  1:
 E= -156.011930020125    
 DIIS: error= 4.52D-02 at cycle   1 NSaved=   1.
 NSaved= 1 IEnMin= 1 EnMin= -156.011930020125     IErMin= 1 ErrMin= 4.52D-02
 ErrMax= 4.52D-02  0.00D+00 EMaxC= 1.00D-01 BMatC= 8.94D-01 BMatP= 8.94D-01
 IDIUse=3 WtCom= 5.48D-01 WtEn= 4.52D-01
 Coeff-Com:  0.100D+01
 Coeff-En:   0.100D+01
 Coeff:      0.100D+01
 Gap=    -0.145 Goal=   None    Shift=    0.000
 Gap=     0.010 Goal=   None    Shift=    0.000
 GapD=   -0.145 DampG=0.250 DampE=0.500 DampFc=0.2500 IDamp=-1.
 Damping current iteration by 2.50D-01
 RMSDP=4.86D+00 MaxDP=3.17D+02              OVMax= 9.84D-01

 Cycle   2  Pass 1  IDiag  1:
 E= -155.888195007153     Delta-E=        0.123735012972 Rises=F Damp=T
 DIIS: error= 9.83D-03 at cycle   2 NSaved=   2.
 NSaved= 2 IEnMin= 1 EnMin= -156.011930020125     IErMin= 2 ErrMin= 9.83D-03
 ErrMax= 9.83D-03  0.00D+00 EMaxC= 1.00D-01 BMatC= 8.80D-02 BMatP= 8.94D-01
 IDIUse=3 WtCom= 9.02D-01 WtEn= 9.83D-02
 Coeff-Com: -0.593D-01 0.106D+01
 Coeff-En:   0.625D+00 0.375D+00
 Coeff:      0.793D-02 0.992D+00
 Gap=     0.036 Goal=   None    Shift=    0.000
 Gap=    -0.102 Goal=   None    Shift=    0.000
 RMSDP=1.21D+00 MaxDP=7.92D+01 DE= 1.24D-01 OVMax= 9.78D-01

 Cycle   3  Pass 1  IDiag  1:
 E= -156.214973382017     Delta-E=       -0.326778374864 Rises=F Damp=F
 DIIS: error= 3.95D-02 at cycle   3 NSaved=   3.
 NSaved= 3 IEnMin= 3 EnMin= -156.214973382017     IErMin= 2 ErrMin= 9.83D-03
 ErrMax= 3.95D-02  0.00D+00 EMaxC= 1.00D-01 BMatC= 3.40D-01 BMatP= 8.80D-02
 IDIUse=2 WtCom= 0.00D+00 WtEn= 1.00D+00
 Coeff-En:   0.000D+00 0.585D-01 0.941D+00
 Coeff:      0.000D+00 0.585D-01 0.941D+00
 Gap=     0.025 Goal=   None    Shift=    0.000
 Gap=     0.027 Goal=   None    Shift=    0.000
 RMSDP=7.58D-01 MaxDP=4.28D+01 DE=-3.27D-01 OVMax= 9.91D-01

 Cycle   4  Pass 1  IDiag  1:
 E= -153.866640485831     Delta-E=        2.348332896186 Rises=F Damp=F
 DIIS: error= 1.48D-01 at cycle   4 NSaved=   4.
 NSaved= 4 IEnMin= 3 EnMin= -156.214973382017     IErMin= 2 ErrMin= 9.83D-03
 ErrMax= 1.48D-01  0.00D+00 EMaxC= 1.00D-01 BMatC= 4.18D+00 BMatP= 8.80D-02
 IDIUse=2 WtCom= 0.00D+00 WtEn= 1.00D+00
 Coeff-En:   0.000D+00 0.000D+00 0.874D+00 0.126D+00
 Coeff:      0.000D+00 0.000D+00 0.874D+00 0.126D+00
 Gap=    -0.001 Goal=   None    Shift=    0.000
 Gap=     0.034 Goal=   None    Shift=    0.000
 RMSDP=6.94D-01 MaxDP=3.93D+01 DE= 2.35D+00 OVMax= 9.43D-01

 Cycle   5  Pass 1  IDiag  1:
 E= -156.242637951865     Delta-E=       -2.375997466033 Rises=F Damp=F
 DIIS: error= 4.14D-02 at cycle   5 NSaved=   5.
 NSaved= 5 IEnMin= 5 EnMin= -156.242637951865     IErMin= 2 ErrMin= 9.83D-03
 ErrMax= 4.14D-02  0.00D+00 EMaxC= 1.00D-01 BMatC= 4.02D-01 BMatP= 8.80D-02
 IDIUse=2 WtCom= 0.00D+00 WtEn= 1.00D+00
 Coeff-En:   0.000D+00 0.000D+00 0.472D+00 0.000D+00 0.528D+00
 Coeff:      0.000D+00 0.000D+00 0.472D+00 0.000D+00 0.528D+00
 Gap=     0.034 Goal=   None    Shift=    0.000
 Gap=     0.113 Goal=   None    Shift=    0.000
 RMSDP=6.75D-02 MaxDP=3.30D+00 DE=-2.38D+00 OVMax= 2.09D-01

 Cycle   6  Pass 1  IDiag  1:
 E= -156.400640012430     Delta-E=       -0.158002060565 Rises=F Damp=F
 DIIS: error= 1.59D-02 at cycle   6 NSaved=   6.
 NSaved= 6 IEnMin= 6 EnMin= -156.400640012430     IErMin= 2 ErrMin= 9.83D-03
 ErrMax= 1.59D-02  0.00D+00 EMaxC= 1.00D-01 BMatC= 3.48D-02 BMatP= 8.80D-02
 IDIUse=3 WtCom= 8.41D-01 WtEn= 1.59D-01
 Coeff-Com: -0.693D-01 0.189D+00 0.290D+00-0.280D-01 0.243D+00 0.375D+00
 Coeff-En:   0.000D+00 0.000D+00 0.000D+00 0.000D+00 0.000D+00 0.100D+01
 Coeff:     -0.583D-01 0.159D+00 0.244D+00-0.236D-01 0.204D+00 0.475D+00
 Gap=     0.003 Goal=   None    Shift=    0.000
 Gap=     0.124 Goal=   None    Shift=    0.000
 RMSDP=1.35D-02 MaxDP=7.87D-01 DE=-1.58D-01 OVMax= 1.35D-01

 Cycle   7  Pass 1  IDiag  1:
 E= -156.410686353117     Delta-E=       -0.010046340687 Rises=F Damp=F
 DIIS: error= 1.04D-02 at cycle   7 NSaved=   7.
 NSaved= 7 IEnMin= 7 EnMin= -156.410686353117     IErMin= 2 ErrMin= 9.83D-03
 ErrMax= 1.04D-02  0.00D+00 EMaxC= 1.00D-01 BMatC= 2.25D-02 BMatP= 3.48D-02
 IDIUse=3 WtCom= 8.96D-01 WtEn= 1.04D-01
 Coeff-Com: -0.395D-01 0.518D-01 0.995D-01-0.759D-02 0.259D-01 0.396D+00
 Coeff-Com:  0.474D+00
 Coeff-En:   0.000D+00 0.000D+00 0.000D+00 0.000D+00 0.000D+00 0.343D+00
 Coeff-En:   0.657D+00
 Coeff:     -0.354D-01 0.464D-01 0.891D-01-0.680D-02 0.232D-01 0.390D+00
 Coeff:      0.493D+00
 Gap=     0.019 Goal=   None    Shift=    0.000
 Gap=     0.109 Goal=   None    Shift=    0.000
 RMSDP=3.83D-03 MaxDP=2.29D-01 DE=-1.00D-02 OVMax= 6.27D-02

 Cycle   8  Pass 1  IDiag  1:
 E= -156.419430683601     Delta-E=       -0.008744330484 Rises=F Damp=F
 DIIS: error= 2.55D-03 at cycle   8 NSaved=   8.
 NSaved= 8 IEnMin= 8 EnMin= -156.419430683601     IErMin= 8 ErrMin= 2.55D-03
 ErrMax= 2.55D-03  0.00D+00 EMaxC= 1.00D-01 BMatC= 1.45D-03 BMatP= 2.25D-02
 IDIUse=3 WtCom= 9.75D-01 WtEn= 2.55D-02
 Coeff-Com: -0.166D-01 0.551D-02 0.221D-01-0.310D-03-0.197D-01 0.153D+00
 Coeff-Com:  0.269D+00 0.587D+00
 Coeff-En:   0.000D+00 0.000D+00 0.000D+00 0.000D+00 0.000D+00 0.000D+00
 Coeff-En:   0.000D+00 0.100D+01
 Coeff:     -0.162D-01 0.536D-02 0.215D-01-0.302D-03-0.192D-01 0.149D+00
 Coeff:      0.262D+00 0.598D+00
 Gap=     0.027 Goal=   None    Shift=    0.000
 Gap=     0.111 Goal=   None    Shift=    0.000
 RMSDP=3.04D-03 MaxDP=2.15D-01 DE=-8.74D-03 OVMax= 2.47D-02

 Cycle   9  Pass 1  IDiag  1:
 E= -156.419948085744     Delta-E=       -0.000517402143 Rises=F Damp=F
 DIIS: error= 1.60D-03 at cycle   9 NSaved=   9.
 NSaved= 9 IEnMin= 9 EnMin= -156.419948085744     IErMin= 9 ErrMin= 1.60D-03
 ErrMax= 1.60D-03  0.00D+00 EMaxC= 1.00D-01 BMatC= 5.46D-04 BMatP= 1.45D-03
 IDIUse=3 WtCom= 9.84D-01 WtEn= 1.60D-02
 Coeff-Com: -0.290D-02 0.214D-02-0.355D-03 0.446D-03-0.506D-02-0.165D-01
 Coeff-Com: -0.238D-01 0.372D+00 0.674D+00
 Coeff-En:   0.000D+00 0.000D+00 0.000D+00 0.000D+00 0.000D+00 0.000D+00
 Coeff-En:   0.000D+00 0.201D+00 0.799D+00
 Coeff:     -0.285D-02 0.211D-02-0.349D-03 0.439D-03-0.498D-02-0.162D-01
 Coeff:     -0.234D-01 0.369D+00 0.676D+00
 Gap=     0.030 Goal=   None    Shift=    0.000
 Gap=     0.111 Goal=   None    Shift=    0.000
 RMSDP=1.81D-03 MaxDP=1.07D-01 DE=-5.17D-04 OVMax= 1.62D-02

 Cycle  10  Pass 1  IDiag  1:
 E= -156.420192509343     Delta-E=       -0.000244423598 Rises=F Damp=F
 DIIS: error= 3.50D-04 at cycle  10 NSaved=  10.
 NSaved=10 IEnMin=10 EnMin= -156.420192509343     IErMin=10 ErrMin= 3.50D-04
 ErrMax= 3.50D-04  0.00D+00 EMaxC= 1.00D-01 BMatC= 4.05D-05 BMatP= 5.46D-04
 IDIUse=3 WtCom= 9.97D-01 WtEn= 3.50D-03
 Coeff-Com:  0.248D-02-0.142D-02-0.464D-02 0.693D-05 0.299D-02-0.208D-01
 Coeff-Com: -0.439D-01 0.764D-01 0.263D+00 0.726D+00
 Coeff-En:   0.000D+00 0.000D+00 0.000D+00 0.000D+00 0.000D+00 0.000D+00
 Coeff-En:   0.000D+00 0.000D+00 0.000D+00 0.100D+01
 Coeff:      0.247D-02-0.141D-02-0.463D-02 0.690D-05 0.298D-02-0.207D-01
 Coeff:     -0.438D-01 0.761D-01 0.262D+00 0.726D+00
 Gap=     0.031 Goal=   None    Shift=    0.000
 Gap=     0.111 Goal=   None    Shift=    0.000
 RMSDP=8.11D-04 MaxDP=6.16D-02 DE=-2.44D-04 OVMax= 4.07D-03

 Cycle  11  Pass 1  IDiag  1:
 E= -156.420216436372     Delta-E=       -0.000023927029 Rises=F Damp=F
 DIIS: error= 1.60D-04 at cycle  11 NSaved=  11.
 NSaved=11 IEnMin=11 EnMin= -156.420216436372     IErMin=11 ErrMin= 1.60D-04
 ErrMax= 1.60D-04  0.00D+00 EMaxC= 1.00D-01 BMatC= 1.13D-05 BMatP= 4.05D-05
 IDIUse=3 WtCom= 9.98D-01 WtEn= 1.60D-03
 Coeff-Com:  0.233D-02-0.179D-02-0.277D-02 0.193D-05 0.218D-02-0.630D-02
 Coeff-Com: -0.185D-01-0.315D-01-0.215D-01 0.357D+00 0.721D+00
 Coeff-En:   0.000D+00 0.000D+00 0.000D+00 0.000D+00 0.000D+00 0.000D+00
 Coeff-En:   0.000D+00 0.000D+00 0.000D+00 0.000D+00 0.100D+01
 Coeff:      0.232D-02-0.178D-02-0.276D-02 0.193D-05 0.217D-02-0.629D-02
 Coeff:     -0.184D-01-0.315D-01-0.214D-01 0.356D+00 0.721D+00
 Gap=     0.031 Goal=   None    Shift=    0.000
 Gap=     0.111 Goal=   None    Shift=    0.000
 RMSDP=3.80D-04 MaxDP=2.54D-02 DE=-2.39D-05 OVMax= 2.67D-03

 Cycle  12  Pass 1  IDiag  1:
 E= -156.420223930949     Delta-E=       -0.000007494577 Rises=F Damp=F
 DIIS: error= 8.72D-05 at cycle  12 NSaved=  12.
 NSaved=12 IEnMin=12 EnMin= -156.420223930949     IErMin=12 ErrMin= 8.72D-05
 ErrMax= 8.72D-05  0.00D+00 EMaxC= 1.00D-01 BMatC= 1.49D-06 BMatP= 1.13D-05
 IDIUse=1 WtCom= 1.00D+00 WtEn= 0.00D+00
 Coeff-Com:  0.423D-03-0.535D-03 0.663D-04 0.614D-04-0.570D-03 0.292D-02
 Coeff-Com:  0.215D-02-0.833D-02-0.479D-01-0.654D-01 0.127D+00 0.991D+00
 Coeff:      0.423D-03-0.535D-03 0.663D-04 0.614D-04-0.570D-03 0.292D-02
 Coeff:      0.215D-02-0.833D-02-0.479D-01-0.654D-01 0.127D+00 0.991D+00
 Gap=     0.031 Goal=   None    Shift=    0.000
 Gap=     0.111 Goal=   None    Shift=    0.000
 RMSDP=1.54D-04 MaxDP=9.24D-03 DE=-7.49D-06 OVMax= 1.67D-03

 Cycle  13  Pass 1  IDiag  1:
 E= -156.420225566396     Delta-E=       -0.000001635447 Rises=F Damp=F
 DIIS: error= 2.07D-05 at cycle  13 NSaved=  13.
 NSaved=13 IEnMin=13 EnMin= -156.420225566396     IErMin=13 ErrMin= 2.07D-05
 ErrMax= 2.07D-05  0.00D+00 EMaxC= 1.00D-01 BMatC= 1.83D-07 BMatP= 1.49D-06
 IDIUse=1 WtCom= 1.00D+00 WtEn= 0.00D+00
 Coeff-Com: -0.175D-03 0.754D-04 0.465D-03-0.118D-04-0.457D-03 0.125D-02
 Coeff-Com:  0.298D-02 0.257D-02-0.126D-01-0.603D-01-0.545D-01 0.240D+00
 Coeff-Com:  0.880D+00
 Coeff:     -0.175D-03 0.754D-04 0.465D-03-0.118D-04-0.457D-03 0.125D-02
 Coeff:      0.298D-02 0.257D-02-0.126D-01-0.603D-01-0.545D-01 0.240D+00
 Coeff:      0.880D+00
 Gap=     0.031 Goal=   None    Shift=    0.000
 Gap=     0.111 Goal=   None    Shift=    0.000
 RMSDP=5.03D-05 MaxDP=3.23D-03 DE=-1.64D-06 OVMax= 8.23D-04

 Cycle  14  Pass 1  IDiag  1:
 E= -156.420225849018     Delta-E=       -0.000000282623 Rises=F Damp=F
 DIIS: error= 1.15D-05 at cycle  14 NSaved=  14.
 NSaved=14 IEnMin=14 EnMin= -156.420225849018     IErMin=14 ErrMin= 1.15D-05
 ErrMax= 1.15D-05  0.00D+00 EMaxC= 1.00D-01 BMatC= 5.10D-08 BMatP= 1.83D-07
 IDIUse=1 WtCom= 1.00D+00 WtEn= 0.00D+00
 Coeff-Com: -0.938D-04 0.502D-05 0.131D-03 0.108D-05-0.881D-04-0.281D-03
 Coeff-Com:  0.333D-03 0.269D-02 0.387D-02-0.100D-01-0.420D-01-0.865D-01
 Coeff-Com:  0.336D+00 0.796D+00
 Coeff:     -0.938D-04 0.502D-05 0.131D-03 0.108D-05-0.881D-04-0.281D-03
 Coeff:      0.333D-03 0.269D-02 0.387D-02-0.100D-01-0.420D-01-0.865D-01
 Coeff:      0.336D+00 0.796D+00
 Gap=     0.031 Goal=   None    Shift=    0.000
 Gap=     0.111 Goal=   None    Shift=    0.000
 RMSDP=3.39D-05 MaxDP=2.93D-03 DE=-2.83D-07 OVMax= 3.98D-04

 Cycle  15  Pass 1  IDiag  1:
 E= -156.420225929825     Delta-E=       -0.000000080807 Rises=F Damp=F
 DIIS: error= 5.00D-06 at cycle  15 NSaved=  15.
 NSaved=15 IEnMin=15 EnMin= -156.420225929825     IErMin=15 ErrMin= 5.00D-06
 ErrMax= 5.00D-06  0.00D+00 EMaxC= 1.00D-01 BMatC= 1.05D-08 BMatP= 5.10D-08
 IDIUse=1 WtCom= 1.00D+00 WtEn= 0.00D+00
 Coeff-Com:  0.667D-04-0.309D-04-0.121D-03 0.287D-05 0.115D-03-0.247D-03
 Coeff-Com: -0.780D-03 0.251D-03 0.401D-02 0.112D-01 0.421D-02-0.649D-01
 Coeff-Com: -0.182D+00 0.505D-01 0.118D+01
 Coeff:      0.667D-04-0.309D-04-0.121D-03 0.287D-05 0.115D-03-0.247D-03
 Coeff:     -0.780D-03 0.251D-03 0.401D-02 0.112D-01 0.421D-02-0.649D-01
 Coeff:     -0.182D+00 0.505D-01 0.118D+01
 Gap=     0.031 Goal=   None    Shift=    0.000
 Gap=     0.111 Goal=   None    Shift=    0.000
 RMSDP=3.26D-05 MaxDP=3.47D-03 DE=-8.08D-08 OVMax= 3.05D-04

 Cycle  16  Pass 1  IDiag  1:
 E= -156.420225964576     Delta-E=       -0.000000034751 Rises=F Damp=F
 DIIS: error= 2.22D-06 at cycle  16 NSaved=  16.
 NSaved=16 IEnMin=16 EnMin= -156.420225964576     IErMin=16 ErrMin= 2.22D-06
 ErrMax= 2.22D-06  0.00D+00 EMaxC= 1.00D-01 BMatC= 2.08D-09 BMatP= 1.05D-08
 IDIUse=1 WtCom= 1.00D+00 WtEn= 0.00D+00
 Coeff-Com: -0.932D-05 0.163D-04 0.113D-04-0.608D-06-0.255D-04 0.190D-03
 Coeff-Com:  0.342D-03-0.393D-03-0.268D-02-0.216D-02 0.917D-02 0.464D-01
 Coeff-Com: -0.240D-01-0.247D+00-0.306D+00 0.153D+01
 Coeff:     -0.932D-05 0.163D-04 0.113D-04-0.608D-06-0.255D-04 0.190D-03
 Coeff:      0.342D-03-0.393D-03-0.268D-02-0.216D-02 0.917D-02 0.464D-01
 Coeff:     -0.240D-01-0.247D+00-0.306D+00 0.153D+01
 Gap=     0.031 Goal=   None    Shift=    0.000
 Gap=     0.111 Goal=   None    Shift=    0.000
 RMSDP=2.10D-05 MaxDP=2.38D-03 DE=-3.48D-08 OVMax= 1.89D-04

 Cycle  17  Pass 1  IDiag  1:
 E= -156.420225973254     Delta-E=       -0.000000008678 Rises=F Damp=F
 DIIS: error= 5.81D-07 at cycle  17 NSaved=  17.
 NSaved=17 IEnMin=17 EnMin= -156.420225973254     IErMin=17 ErrMin= 5.81D-07
 ErrMax= 5.81D-07  0.00D+00 EMaxC= 1.00D-01 BMatC= 1.86D-10 BMatP= 2.08D-09
 IDIUse=1 WtCom= 1.00D+00 WtEn= 0.00D+00
 Coeff-Com: -0.123D-04 0.778D-05 0.144D-04-0.178D-06-0.324D-05-0.226D-04
 Coeff-Com: -0.602D-04 0.233D-04 0.318D-03-0.571D-03-0.333D-02-0.384D-02
 Coeff-Com:  0.259D-01 0.555D-01-0.166D-01-0.492D+00 0.144D+01
 Coeff:     -0.123D-04 0.778D-05 0.144D-04-0.178D-06-0.324D-05-0.226D-04
 Coeff:     -0.602D-04 0.233D-04 0.318D-03-0.571D-03-0.333D-02-0.384D-02
 Coeff:      0.259D-01 0.555D-01-0.166D-01-0.492D+00 0.144D+01
 Gap=     0.031 Goal=   None    Shift=    0.000
 Gap=     0.111 Goal=   None    Shift=    0.000
 RMSDP=4.02D-06 MaxDP=3.84D-04 DE=-8.68D-09 OVMax= 4.55D-05

 Cycle  18  Pass 1  IDiag  1:
 E= -156.420225973832     Delta-E=       -0.000000000578 Rises=F Damp=F
 DIIS: error= 1.73D-07 at cycle  18 NSaved=  18.
 NSaved=18 IEnMin=18 EnMin= -156.420225973832     IErMin=18 ErrMin= 1.73D-07
 ErrMax= 1.73D-07  0.00D+00 EMaxC= 1.00D-01 BMatC= 1.10D-11 BMatP= 1.86D-10
 IDIUse=1 WtCom= 1.00D+00 WtEn= 0.00D+00
 Coeff-Com:  0.628D-06-0.773D-06-0.171D-05-0.410D-07 0.268D-05-0.914D-05
 Coeff-Com: -0.183D-04 0.159D-04 0.116D-03-0.503D-04-0.576D-03-0.148D-02
 Coeff-Com:  0.629D-03 0.114D-01 0.258D-01-0.967D-01-0.295D-01 0.109D+01
 Coeff:      0.628D-06-0.773D-06-0.171D-05-0.410D-07 0.268D-05-0.914D-05
 Coeff:     -0.183D-04 0.159D-04 0.116D-03-0.503D-04-0.576D-03-0.148D-02
 Coeff:      0.629D-03 0.114D-01 0.258D-01-0.967D-01-0.295D-01 0.109D+01
 Gap=     0.031 Goal=   None    Shift=    0.000
 Gap=     0.111 Goal=   None    Shift=    0.000
 RMSDP=6.17D-07 MaxDP=4.01D-05 DE=-5.78D-10 OVMax= 7.63D-06

 Cycle  19  Pass 1  IDiag  1:
 E= -156.420225973853     Delta-E=       -0.000000000021 Rises=F Damp=F
 DIIS: error= 8.33D-08 at cycle  19 NSaved=  19.
 NSaved=19 IEnMin=19 EnMin= -156.420225973853     IErMin=19 ErrMin= 8.33D-08
 ErrMax= 8.33D-08  0.00D+00 EMaxC= 1.00D-01 BMatC= 1.17D-12 BMatP= 1.10D-11
 IDIUse=1 WtCom= 1.00D+00 WtEn= 0.00D+00
 Coeff-Com:  0.592D-06-0.662D-09-0.846D-06 0.102D-07 0.124D-06 0.251D-05
 Coeff-Com:  0.747D-05 0.302D-05-0.209D-05 0.229D-04 0.117D-03 0.225D-03
 Coeff-Com: -0.190D-02-0.270D-02 0.293D-02 0.285D-01-0.112D+00 0.982D-01
 Coeff-Com:  0.986D+00
 Coeff:      0.592D-06-0.662D-09-0.846D-06 0.102D-07 0.124D-06 0.251D-05
 Coeff:      0.747D-05 0.302D-05-0.209D-05 0.229D-04 0.117D-03 0.225D-03
 Coeff:     -0.190D-02-0.270D-02 0.293D-02 0.285D-01-0.112D+00 0.982D-01
 Coeff:      0.986D+00
 Gap=     0.031 Goal=   None    Shift=    0.000
 Gap=     0.111 Goal=   None    Shift=    0.000
 RMSDP=1.72D-07 MaxDP=1.13D-05 DE=-2.08D-11 OVMax= 1.70D-06

 Cycle  20  Pass 1  IDiag  1:
 E= -156.420225973855     Delta-E=       -0.000000000002 Rises=F Damp=F
 DIIS: error= 1.83D-08 at cycle  20 NSaved=  20.
 NSaved=20 IEnMin=20 EnMin= -156.420225973855     IErMin=20 ErrMin= 1.83D-08
 ErrMax= 1.83D-08  0.00D+00 EMaxC= 1.00D-01 BMatC= 1.21D-13 BMatP= 1.17D-12
 IDIUse=1 WtCom= 1.00D+00 WtEn= 0.00D+00
 Coeff-Com: -0.156D-06 0.174D-06 0.192D-06-0.208D-08-0.247D-06 0.110D-05
 Coeff-Com:  0.623D-06-0.266D-05-0.172D-04 0.183D-04 0.947D-04 0.192D-03
 Coeff-Com: -0.340D-03-0.119D-02-0.223D-02 0.114D-01-0.925D-03-0.107D+00
 Coeff-Com: -0.109D+00 0.121D+01
 Coeff:     -0.156D-06 0.174D-06 0.192D-06-0.208D-08-0.247D-06 0.110D-05
 Coeff:      0.623D-06-0.266D-05-0.172D-04 0.183D-04 0.947D-04 0.192D-03
 Coeff:     -0.340D-03-0.119D-02-0.223D-02 0.114D-01-0.925D-03-0.107D+00
 Coeff:     -0.109D+00 0.121D+01
 Gap=     0.031 Goal=   None    Shift=    0.000
 Gap=     0.111 Goal=   None    Shift=    0.000
 RMSDP=9.06D-08 MaxDP=6.15D-06 DE=-1.82D-12 OVMax= 1.17D-06

 Cycle  21  Pass 1  IDiag  1:
 E= -156.420225973855     Delta-E=       -0.000000000000 Rises=F Damp=F
 DIIS: error= 6.75D-09 at cycle  21 NSaved=  20.
 NSaved=20 IEnMin=20 EnMin= -156.420225973855     IErMin=20 ErrMin= 6.75D-09
 ErrMax= 6.75D-09  0.00D+00 EMaxC= 1.00D-01 BMatC= 1.28D-14 BMatP= 1.21D-13
 IDIUse=1 WtCom= 1.00D+00 WtEn= 0.00D+00
 Coeff-Com:  0.675D-08-0.242D-07-0.214D-07 0.470D-07-0.288D-06-0.720D-06
 Coeff-Com: -0.742D-06 0.847D-06-0.909D-05-0.141D-04 0.828D-05 0.129D-03
 Coeff-Com:  0.173D-03-0.182D-03-0.240D-02 0.695D-02 0.929D-02-0.963D-01
 Coeff-Com: -0.978D-01 0.118D+01
 Coeff:      0.675D-08-0.242D-07-0.214D-07 0.470D-07-0.288D-06-0.720D-06
 Coeff:     -0.742D-06 0.847D-06-0.909D-05-0.141D-04 0.828D-05 0.129D-03
 Coeff:      0.173D-03-0.182D-03-0.240D-02 0.695D-02 0.929D-02-0.963D-01
 Coeff:     -0.978D-01 0.118D+01
 Gap=     0.031 Goal=   None    Shift=    0.000
 Gap=     0.111 Goal=   None    Shift=    0.000
 RMSDP=4.05D-08 MaxDP=2.15D-06 DE=-2.27D-13 OVMax= 2.72D-07

 Cycle  22  Pass 1  IDiag  1:
 E= -156.420225973855     Delta-E=        0.000000000000 Rises=F Damp=F
 DIIS: error= 1.69D-09 at cycle  22 NSaved=  20.
 NSaved=20 IEnMin=19 EnMin= -156.420225973855     IErMin=20 ErrMin= 1.69D-09
 ErrMax= 1.69D-09  0.00D+00 EMaxC= 1.00D-01 BMatC= 1.36D-15 BMatP= 1.28D-14
 IDIUse=1 WtCom= 1.00D+00 WtEn= 0.00D+00
 Large coefficients: NSaved= 20 BigCof=    0.00 CofMax=   10.00 Det=-2.80D-15
 Inversion failed.  Reducing to 19 matrices.
 Large coefficients: NSaved= 19 BigCof=    0.00 CofMax=   10.00 Det=-2.80D-15
 Inversion failed.  Reducing to 18 matrices.
 Large coefficients: NSaved= 18 BigCof=    0.00 CofMax=   10.00 Det=-2.81D-15
 Inversion failed.  Reducing to 17 matrices.
 Large coefficients: NSaved= 17 BigCof=    0.00 CofMax=   10.00 Det=-2.93D-15
 Inversion failed.  Reducing to 16 matrices.
 Large coefficients: NSaved= 16 BigCof=    0.00 CofMax=   10.00 Det=-2.96D-15
 Inversion failed.  Reducing to 15 matrices.
 Coeff-Com:  0.452D-06 0.651D-06-0.159D-05-0.843D-05-0.142D-04 0.549D-04
 Coeff-Com:  0.952D-04 0.371D-04-0.699D-03 0.237D-03 0.845D-02-0.300D-02
 Coeff-Com: -0.749D-01-0.294D-01 0.110D+01
 Coeff:      0.452D-06 0.651D-06-0.159D-05-0.843D-05-0.142D-04 0.549D-04
 Coeff:      0.952D-04 0.371D-04-0.699D-03 0.237D-03 0.845D-02-0.300D-02
 Coeff:     -0.749D-01-0.294D-01 0.110D+01
 Gap=     0.031 Goal=   None    Shift=    0.000
 Gap=     0.111 Goal=   None    Shift=    0.000
 RMSDP=1.42D-08 MaxDP=1.70D-06 DE= 1.14D-13 OVMax= 8.88D-08

 Cycle  23  Pass 1  IDiag  1:
 E= -156.420225973855     Delta-E=       -0.000000000000 Rises=F Damp=F
 DIIS: error= 5.11D-10 at cycle  23 NSaved=  16.
 NSaved=16 IEnMin=16 EnMin= -156.420225973855     IErMin=16 ErrMin= 5.11D-10
 ErrMax= 5.11D-10  0.00D+00 EMaxC= 1.00D-01 BMatC= 9.26D-17 BMatP= 1.36D-15
 IDIUse=1 WtCom= 1.00D+00 WtEn= 0.00D+00
 Large coefficients: NSaved= 16 BigCof=    0.00 CofMax=   10.00 Det=-3.76D-16
 Inversion failed.  Reducing to 15 matrices.
 Coeff-Com: -0.552D-07 0.729D-06 0.103D-05-0.383D-05-0.220D-05 0.140D-05
 Coeff-Com:  0.294D-04 0.407D-04-0.517D-03 0.590D-03 0.558D-02 0.238D-02
 Coeff-Com: -0.973D-01 0.767D-01 0.101D+01
 Coeff:     -0.552D-07 0.729D-06 0.103D-05-0.383D-05-0.220D-05 0.140D-05
 Coeff:      0.294D-04 0.407D-04-0.517D-03 0.590D-03 0.558D-02 0.238D-02
 Coeff:     -0.973D-01 0.767D-01 0.101D+01
 Gap=     0.031 Goal=   None    Shift=    0.000
 Gap=     0.111 Goal=   None    Shift=    0.000
 RMSDP=6.37D-09 MaxDP=7.50D-07 DE=-3.41D-13 OVMax= 3.49D-08

 SCF Done:  E(UB3LYP) =  -156.420225974     A.U. after   23 cycles
            NFock= 23  Conv=0.64D-08     -V/T= 2.0041
 <Sx>= 0.0000 <Sy>= 0.0000 <Sz>= 2.0000 <S**2>= 6.0199 S= 2.0040
 <L.S>= 0.000000000000E+00
 KE= 1.557802947384D+02 PE=-5.922085392715D+02 EE= 1.665168581751D+02
 Annihilation of the first spin contaminant:
 S**2 before annihilation     6.0199,   after     6.0001
 Leave Link  502 at Wed Jun 19 17:51:53 2019, MaxMem=  4294967296 cpu:             112.6 elap:              11.4
 (Enter /opt/gaussian/gdv-20170407-i10+/gdv/l601.exe)
 Copying SCF densities to generalized density rwf, IOpCl= 1 IROHF=0.

 **********************************************************************

            Population analysis using the SCF Density.

 **********************************************************************

 Orbital symmetries:
 Alpha Orbitals:
       Occupied  (A') (A') (A') (A') (A') (A') (A') (A') (A') (A')
                 (A') (A') (A") (A') (A') (A') (A") (A') (A')
       Virtual   (A") (A') (A') (A") (A') (A') (A") (A') (A") (A')
                 (A') (A') (A') (A") (A') (A") (A') (A") (A') (A')
                 (A') (A') (A") (A") (A') (A') (A") (A') (A") (A')
                 (A') (A") (A') (A') (A') (A") (A') (A') (A') (A')
                 (A') (A') (A') (A') (A') (A') (A') (A') (A") (A')
                 (A") (A') (A') (A") (A') (A") (A") (A') (A') (A')
                 (A") (A") (A') (A') (A") (A") (A') (A') (A') (A')
                 (A') (A') (A') (A') (A') (A") (A') (A') (A") (A")
                 (A') (A') (A') (A") (A") (A') (A') (A") (A') (A')
                 (A') (A") (A') (A') (A") (A") (A') (A") (A') (A')
                 (A') (A') (A') (A") (A") (A') (A') (A') (A") (A')
                 (A') (A") (A") (A") (A") (A') (A") (A') (A') (A')
                 (A') (A') (A') (A') (A') (A') (A') (A') (A') (A')
                 (A') (A') (A') (A') (A')
 Beta  Orbitals:
       Occupied  (A') (A') (A') (A') (A') (A') (A') (A') (A') (A')
                 (A') (A') (A") (A') (A')
       Virtual   (A") (A') (A') (A") (A') (A') (A") (A') (A') (A')
                 (A") (A') (A') (A') (A') (A") (A') (A") (A') (A")
                 (A") (A') (A') (A') (A') (A") (A') (A") (A') (A')
                 (A") (A') (A") (A') (A') (A') (A") (A') (A') (A')
                 (A') (A') (A") (A') (A') (A') (A') (A') (A') (A')
                 (A') (A') (A") (A') (A") (A') (A') (A") (A") (A')
                 (A") (A') (A') (A") (A') (A") (A') (A') (A") (A')
                 (A") (A') (A') (A') (A') (A') (A') (A') (A') (A")
                 (A') (A') (A") (A') (A") (A') (A') (A") (A") (A')
                 (A') (A') (A") (A') (A") (A') (A') (A") (A') (A")
                 (A') (A") (A') (A') (A') (A') (A') (A") (A") (A')
                 (A') (A') (A") (A') (A') (A") (A") (A") (A") (A')
                 (A") (A') (A') (A') (A') (A') (A') (A') (A') (A')
                 (A') (A') (A') (A') (A') (A') (A') (A') (A')
 The electronic state is 5-A".
 Alpha  occ. eigenvalues --   -6.63187  -6.62869  -6.62431  -6.62320  -6.61849
 Alpha  occ. eigenvalues --   -6.61696  -1.86836  -0.55792  -0.47361  -0.31674
 Alpha  occ. eigenvalues --   -0.29328  -0.20183  -0.18980  -0.16744  -0.15830
 Alpha  occ. eigenvalues --   -0.14104  -0.10557  -0.06783   0.01727
 Alpha virt. eigenvalues --    0.04801   0.05692   0.06384   0.06437   0.06758
 Alpha virt. eigenvalues --    0.07270   0.09013   0.10572   0.11054   0.11548
 Alpha virt. eigenvalues --    0.11993   0.12836   0.13338   0.13943   0.14510
 Alpha virt. eigenvalues --    0.15131   0.15601   0.16141   0.16278   0.16777
 Alpha virt. eigenvalues --    0.17408   0.17996   0.18452   0.19182   0.20111
 Alpha virt. eigenvalues --    0.20809   0.20955   0.21211   0.21697   0.22086
 Alpha virt. eigenvalues --    0.23013   0.23354   0.24373   0.24598   0.25040
 Alpha virt. eigenvalues --    0.26084   0.26827   0.27311   0.28253   0.29780
 Alpha virt. eigenvalues --    0.30826   0.33965   0.35339   0.37293   0.38095
 Alpha virt. eigenvalues --    0.41293   0.44441   0.45904   0.46841   0.47807
 Alpha virt. eigenvalues --    0.49589   0.51446   0.52287   0.52341   0.53311
 Alpha virt. eigenvalues --    0.53881   0.54864   0.55406   0.55719   0.57902
 Alpha virt. eigenvalues --    0.58850   0.59029   0.61414   0.62879   0.63289
 Alpha virt. eigenvalues --    0.64205   0.64467   0.66577   0.67168   0.69268
 Alpha virt. eigenvalues --    0.70904   0.72891   0.75049   0.77627   0.79580
 Alpha virt. eigenvalues --    0.80418   0.81075   0.85481   0.86024   0.86614
 Alpha virt. eigenvalues --    0.88059   0.90487   0.92499   1.00409   1.09236
 Alpha virt. eigenvalues --    1.10558   1.23812   1.23908   1.23941   1.26764
 Alpha virt. eigenvalues --    1.30531   1.32663   1.34774   1.37027   1.37294
 Alpha virt. eigenvalues --    1.38666   1.46626   1.49453   1.52020   1.54446
 Alpha virt. eigenvalues --    1.56482   1.61558   1.67480   1.68790   1.73000
 Alpha virt. eigenvalues --    1.77870   1.81369   1.90596   1.92027   2.00608
 Alpha virt. eigenvalues --    2.03559   2.03779   2.05258   2.07274   2.11497
 Alpha virt. eigenvalues --    2.16774   2.16969   2.18150   2.28270   2.29317
 Alpha virt. eigenvalues --    2.31392   2.38541   2.45731   2.52661   2.68251
 Alpha virt. eigenvalues --    2.74579   2.79457   2.93707   3.92625  13.97974
 Alpha virt. eigenvalues --   14.64637  14.78540  15.11565  15.32473  15.43422
  Beta  occ. eigenvalues --   -6.63049  -6.62604  -6.62129  -6.61634  -6.61094
  Beta  occ. eigenvalues --   -6.60336  -1.86425  -0.53887  -0.44336  -0.29075
  Beta  occ. eigenvalues --   -0.28294  -0.18102  -0.16190  -0.13991  -0.13535
  Beta virt. eigenvalues --   -0.02397  -0.02323   0.04106   0.05608   0.06545
  Beta virt. eigenvalues --    0.06886   0.06945   0.07261   0.08168   0.09591
  Beta virt. eigenvalues --    0.11561   0.12102   0.12603   0.12950   0.13250
  Beta virt. eigenvalues --    0.13399   0.13703   0.14746   0.14862   0.15562
  Beta virt. eigenvalues --    0.16517   0.16576   0.17704   0.17809   0.18156
  Beta virt. eigenvalues --    0.19032   0.19276   0.20108   0.20526   0.21082
  Beta virt. eigenvalues --    0.21510   0.21982   0.22142   0.23108   0.23656
  Beta virt. eigenvalues --    0.24724   0.25024   0.25025   0.25655   0.27900
  Beta virt. eigenvalues --    0.28336   0.29020   0.29582   0.30216   0.32491
  Beta virt. eigenvalues --    0.35997   0.37221   0.38667   0.39890   0.42853
  Beta virt. eigenvalues --    0.45599   0.47963   0.48018   0.49138   0.50987
  Beta virt. eigenvalues --    0.52434   0.53286   0.53512   0.54666   0.55131
  Beta virt. eigenvalues --    0.56471   0.56478   0.56560   0.59694   0.59717
  Beta virt. eigenvalues --    0.60404   0.62136   0.64471   0.65435   0.65662
  Beta virt. eigenvalues --    0.65816   0.67862   0.70207   0.71958   0.72660
  Beta virt. eigenvalues --    0.74567   0.76813   0.79017   0.80835   0.82014
  Beta virt. eigenvalues --    0.82428   0.86961   0.87707   0.90292   0.90295
  Beta virt. eigenvalues --    0.92481   0.95633   1.03353   1.11960   1.12643
  Beta virt. eigenvalues --    1.24822   1.26435   1.27450   1.28670   1.33417
  Beta virt. eigenvalues --    1.33731   1.36633   1.39657   1.40060   1.41582
  Beta virt. eigenvalues --    1.48152   1.52514   1.53469   1.57090   1.59127
  Beta virt. eigenvalues --    1.63603   1.70500   1.71252   1.75306   1.80303
  Beta virt. eigenvalues --    1.83100   1.92324   1.93296   2.01628   2.04560
  Beta virt. eigenvalues --    2.04815   2.06814   2.08083   2.14129   2.17618
  Beta virt. eigenvalues --    2.18424   2.19345   2.29246   2.31236   2.32782
  Beta virt. eigenvalues --    2.42347   2.48731   2.53715   2.69569   2.75457
  Beta virt. eigenvalues --    2.80494   2.94918   3.93337  13.98707  14.65488
  Beta virt. eigenvalues --   14.78915  15.12212  15.33451  15.44642
          Condensed to atoms (all electrons):
               1          2          3          4          5          6
     1  B    9.542110  -0.941611   1.079509   0.757022  -3.251270  -2.065989
     2  B   -0.941611   6.970127   0.016251  -1.094431  -0.469412   1.003545
     3  B    1.079509   0.016251   4.981098   0.333320  -1.217291  -0.333615
     4  B    0.757022  -1.094431   0.333320   5.681630  -0.580284   0.012064
     5  B   -3.251270  -0.469412  -1.217291  -0.580284   9.711804   0.544677
     6  B   -2.065989   1.003545  -0.333615   0.012064   0.544677   5.698029
     7  Li  -0.288271  -0.009133  -0.390926  -0.285945   1.048054   0.110027
               7
     1  B   -0.288271
     2  B   -0.009133
     3  B   -0.390926
     4  B   -0.285945
     5  B    1.048054
     6  B    0.110027
     7  Li   3.462620
          Atomic-Atomic Spin Densities.
               1          2          3          4          5          6
     1  B    2.052310  -0.826424   0.396878   0.121977  -0.349102  -0.864573
     2  B   -0.826424   1.728266  -0.188490  -0.135017   0.136832   0.443239
     3  B    0.396878  -0.188490   0.132022   0.014858   0.007397  -0.221768
     4  B    0.121977  -0.135017   0.014858   0.258092  -0.109707  -0.026036
     5  B   -0.349102   0.136832   0.007397  -0.109707   1.284130  -0.050472
     6  B   -0.864573   0.443239  -0.221768  -0.026036  -0.050472   0.698193
     7  Li   0.065461   0.021110  -0.003776  -0.026227  -0.000353   0.064620
               7
     1  B    0.065461
     2  B    0.021110
     3  B   -0.003776
     4  B   -0.026227
     5  B   -0.000353
     6  B    0.064620
     7  Li   0.906132
 Mulliken charges and spin densities:
               1          2
     1  B    0.168500   0.596527
     2  B   -0.475337   1.179517
     3  B    0.531654   0.137120
     4  B    0.176625   0.097939
     5  B   -0.786277   0.918726
     6  B    0.031262   0.043203
     7  Li  -0.646426   1.026967
 Sum of Mulliken charges =  -1.00000   4.00000
 Mulliken charges and spin densities with hydrogens summed into heavy atoms:
               1          2
     1  B    0.168500   0.596527
     2  B   -0.475337   1.179517
     3  B    0.531654   0.137120
     4  B    0.176625   0.097939
     5  B   -0.786277   0.918726
     6  B    0.031262   0.043203
     7  Li  -0.646426   1.026967
 Electronic spatial extent (au):  <R**2>=            540.2943
 Charge=             -1.0000 electrons
 Dipole moment (field-independent basis, Debye):
    X=              0.1264    Y=            -10.0560    Z=             -0.0000  Tot=             10.0568
 Quadrupole moment (field-independent basis, Debye-Ang):
   XX=            -67.5120   YY=           -125.2312   ZZ=            -55.8316
   XY=              8.4113   XZ=              0.0000   YZ=             -0.0000
 Traceless Quadrupole moment (field-independent basis, Debye-Ang):
   XX=             15.3463   YY=            -42.3730   ZZ=             27.0267
   XY=              8.4113   XZ=              0.0000   YZ=             -0.0000
 Octapole moment (field-independent basis, Debye-Ang**2):
  XXX=             13.7419  YYY=           -493.9454  ZZZ=             -0.0000  XYY=             23.4733
  XXY=            -64.9408  XXZ=             -0.0000  XZZ=              5.6375  YZZ=            -73.0367
  YYZ=             -0.0000  XYZ=             -0.0000
 Hexadecapole moment (field-independent basis, Debye-Ang**3):
 XXXX=           -787.6653 YYYY=          -4126.2655 ZZZZ=           -350.9560 XXXY=            227.5621
 XXXZ=              0.0000 YYYX=            340.7198 YYYZ=             -0.0000 ZZZX=              0.0000
 ZZZY=             -0.0000 XXYY=           -628.3414 XXZZ=           -179.7949 YYZZ=           -537.2289
 XXYZ=             -0.0000 YYXZ=              0.0000 ZZXY=             67.0220
 N-N= 1.134911603841D+02 E-N=-5.922085392230D+02  KE= 1.557802947384D+02
 Symmetry A'   KE= 1.539060447411D+02
 Symmetry A"   KE= 1.874249997291D+00
 Symmetry A'   SP= 3.000000000000D+00
 Symmetry A"   SP= 1.000000000000D+00
                          Isotropic Fermi Contact Couplings
        Atom                 a.u.       MegaHertz       Gauss      10(-4) cm-1
     1  B(11)              0.01833       6.57250       2.34523       2.19235
     2  B(11)              0.32892     117.94714      42.08647      39.34293
     3  B(11)              0.00832       2.98363       1.06463       0.99523
     4  B(11)              0.02622       9.40069       3.35440       3.13573
     5  B(11)              0.34557     123.91768      44.21691      41.33449
     6  B(11)              0.05471      19.61782       7.00012       6.54380
     7  Li(7)              0.08714      37.84600      13.50439      12.62407
 --------------------------------------------------------
       Center         ----  Spin Dipole Couplings  ----
                      3XX-RR        3YY-RR        3ZZ-RR
 --------------------------------------------------------
     1   Atom       -0.093212      0.070374      0.022837
     2   Atom       -0.088913      0.109455     -0.020542
     3   Atom        0.002125      0.019877     -0.022002
     4   Atom       -0.053671      0.043443      0.010228
     5   Atom       -0.078422      0.076213      0.002209
     6   Atom       -0.001837      0.048231     -0.046394
     7   Atom        0.003390      0.028870     -0.032260
 --------------------------------------------------------
                        XY            XZ            YZ
 --------------------------------------------------------
     1   Atom       -0.003229     -0.000000      0.000000
     2   Atom       -0.249250     -0.000000      0.000000
     3   Atom       -0.039892     -0.000000      0.000000
     4   Atom        0.005769     -0.000000      0.000000
     5   Atom       -0.229618     -0.000000      0.000000
     6   Atom       -0.058577     -0.000000      0.000000
     7   Atom        0.033311      0.000000      0.000000
 --------------------------------------------------------


 ---------------------------------------------------------------------------------
              Anisotropic Spin Dipole Couplings in Principal Axis System
 ---------------------------------------------------------------------------------

       Atom             a.u.   MegaHertz   Gauss  10(-4) cm-1        Axes

              Baa    -0.0933   -15.970    -5.699    -5.327  0.9998  0.0197  0.0000
     1 B(11)  Bbb     0.0228     3.910     1.395     1.304  0.0000  0.0000  1.0000
              Bcc     0.0704    12.060     4.303     4.023 -0.0197  0.9998 -0.0000
 
              Baa    -0.2580   -44.171   -15.761   -14.734  0.8276  0.5614  0.0000
     2 B(11)  Bbb    -0.0205    -3.517    -1.255    -1.173  0.0000  0.0000  1.0000
              Bcc     0.2785    47.689    17.016    15.907 -0.5614  0.8276 -0.0000
 
              Baa    -0.0299    -5.114    -1.825    -1.706  0.7801  0.6256 -0.0000
     3 B(11)  Bbb    -0.0220    -3.767    -1.344    -1.257  0.0000  0.0000  1.0000
              Bcc     0.0519     8.881     3.169     2.962 -0.6256  0.7801 -0.0000
 
              Baa    -0.0540    -9.248    -3.300    -3.085  0.9983 -0.0591  0.0000
     4 B(11)  Bbb     0.0102     1.751     0.625     0.584  0.0000  0.0000  1.0000
              Bcc     0.0438     7.497     2.675     2.501  0.0591  0.9983 -0.0000
 
              Baa    -0.2434   -41.672   -14.870   -13.900  0.8121  0.5835 -0.0000
     5 B(11)  Bbb     0.0022     0.378     0.135     0.126  0.0000  0.0000  1.0000
              Bcc     0.2412    41.294    14.735    13.774 -0.5835  0.8121 -0.0000
 
              Baa    -0.0464    -7.943    -2.834    -2.650  0.0000  0.0000  1.0000
     6 B(11)  Bbb    -0.0405    -6.935    -2.475    -2.313  0.8346  0.5509 -0.0000
              Bcc     0.0869    14.878     5.309     4.963 -0.5509  0.8346 -0.0000
 
              Baa    -0.0323    -6.690    -2.387    -2.231  0.0000  0.0000  1.0000
     7 Li(7)  Bbb    -0.0195    -4.051    -1.445    -1.351  0.8238 -0.5669  0.0000
              Bcc     0.0518    10.741     3.833     3.583  0.5669  0.8238 -0.0000
 

 ---------------------------------------------------------------------------------

 No NMR shielding tensors so no spin-rotation constants.
 Leave Link  601 at Wed Jun 19 17:51:53 2019, MaxMem=  4294967296 cpu:               3.2 elap:               0.3
 (Enter /opt/gaussian/gdv-20170407-i10+/gdv/l701.exe)
 ... and contract with generalized density number  0.
 Compute integral first derivatives.
 Leave Link  701 at Wed Jun 19 17:51:54 2019, MaxMem=  4294967296 cpu:               4.4 elap:               0.4
 (Enter /opt/gaussian/gdv-20170407-i10+/gdv/l702.exe)
 L702 exits ... SP integral derivatives will be done elsewhere.
 Leave Link  702 at Wed Jun 19 17:51:54 2019, MaxMem=  4294967296 cpu:               0.2 elap:               0.0
 (Enter /opt/gaussian/gdv-20170407-i10+/gdv/l703.exe)
 Integral derivatives from FoFJK, PRISM(SPDF).
 Compute integral first derivatives, UseDBF=F ICtDFT=           0.
 Calling FoFJK, ICntrl=      2127 FMM=F ISym2X=1 I1Cent= 0 IOpClX= 1 NMat=1 NMatS=1 NMatT=0.
 FoFJK:  IHMeth= 1 ICntrl=    2127 DoSepK=F KAlg= 0 I1Cent=           0 FoldK=F
 IRaf=         0 NMat=       1 IRICut=       1 DoRegI=T DoRafI=F ISym2E= 1 IDoP0=0 IntGTp=1.
 FoFCou: FMM=F IPFlag=           0 FMFlag=      100000 FMFlg1=         800
         NFxFlg=           0 DoJE=F BraDBF=F KetDBF=F FulRan=T
         wScrn=  0.000000 ICntrl=      2127 IOpCl=  1 I1Cent=           0 NGrid=           0
         NMat0=    1 NMatS0=      1 NMatT0=    0 NMatD0=    1 NMtDS0=    0 NMtDT0=    0
 Petite list used in FoFCou.
 Leave Link  703 at Wed Jun 19 17:51:55 2019, MaxMem=  4294967296 cpu:              15.1 elap:               1.3
 (Enter /opt/gaussian/gdv-20170407-i10+/gdv/l716.exe)
 Dipole        = 4.97450068D-02-3.95633129D+00-2.24552710D-31
 ***** Axes restored to original set *****
 -------------------------------------------------------------------
 Center     Atomic                   Forces (Hartrees/Bohr)
 Number     Number              X              Y              Z
 -------------------------------------------------------------------
      1        5          -0.027513692    0.037033561   -0.000000000
      2        5           0.051051070   -0.042612695    0.000000000
      3        5          -0.064444770    0.044214920   -0.000000000
      4        5           0.015796471   -0.047675601    0.000000000
      5        5          -0.015483496    0.007362430   -0.000000000
      6        5           0.034788352   -0.018350675    0.000000000
      7        3           0.005806065    0.020028061   -0.000000000
 -------------------------------------------------------------------
 Cartesian Forces:  Max     0.064444770 RMS     0.028831922
 Leave Link  716 at Wed Jun 19 17:51:55 2019, MaxMem=  4294967296 cpu:               0.3 elap:               0.0
 (Enter /opt/gaussian/gdv-20170407-i10+/gdv/l103.exe)

 GradGradGradGradGradGradGradGradGradGradGradGradGradGradGradGradGradGrad
 Berny optimization.
 FormGI is forming the generalized inverse of G from B-inverse, IUseBI=4.
 Internal  Forces:  Max     0.044778771 RMS     0.012561237
 Search for a local minimum.
 Step number   1 out of a maximum of   46
 All quantities printed in internal units (Hartrees-Bohrs-Radians)
 RMS Force = .12561D-01 SwitMx=.10000D-02 MixMth= 1
 Mixed Optimization -- RFO/linear search
 Second derivative matrix not updated -- first step.
 ITU=  0
     Eigenvalues ---    0.00230   0.00230   0.00241   0.01097   0.06501
     Eigenvalues ---    0.11748   0.16617   0.20806   0.21360   0.22790
     Eigenvalues ---    0.24566   0.25000   0.28794   0.29666   0.31998
 RFO step:  Lambda=-2.17458444D-02 EMin= 2.30000000D-03
 Linear search not attempted -- first point.
 Maximum step size (   0.300) exceeded in Quadratic search.
    -- Step size scaled by   0.958
 Iteration  1 RMS(Cart)=  0.03012498 RMS(Int)=  0.00056159
 Iteration  2 RMS(Cart)=  0.00033866 RMS(Int)=  0.00032619
 Iteration  3 RMS(Cart)=  0.00000007 RMS(Int)=  0.00032619
 ITry= 1 IFail=0 DXMaxC= 8.33D-02 DCOld= 1.00D+10 DXMaxT= 3.00D-01 DXLimC= 3.00D+00 Rises=F
 ClnCor:  largest displacement from symmetrization is 5.89D-10 for atom     1.
 Variable       Old X    -DE/DX   Delta X   Delta X   Delta X     New X
                                 (Linear)    (Quad)   (Total)
    R1        2.82896   0.03083   0.00000   0.08477   0.08503   2.91399
    R2        3.38826  -0.00331   0.00000  -0.01829  -0.01845   3.36980
    R3        3.08032  -0.02320   0.00000  -0.09507  -0.09522   2.98510
    R4        2.89441   0.04478   0.00000   0.13741   0.13760   3.03202
    R5        3.10632  -0.03208   0.00000  -0.13013  -0.12999   2.97633
    R6        2.86000   0.01528   0.00000   0.04614   0.04632   2.90633
    R7        3.22336   0.00900   0.00000   0.03581   0.03544   3.25881
    R8        3.00757   0.00780   0.00000   0.03181   0.03168   3.03925
    R9        3.91109   0.01231   0.00000   0.12185   0.12196   4.03305
   R10        4.25059   0.00928   0.00000   0.10890   0.10887   4.35947
    A1        2.22154   0.00984   0.00000   0.03120   0.03032   2.25187
    A2        1.26863  -0.00407   0.00000  -0.01441  -0.01418   1.25445
    A3        1.81496   0.00842   0.00000   0.03342   0.03410   1.84906
    A4        2.73673   0.01543   0.00000   0.05306   0.05201   2.78874
    A5        2.33182  -0.00610   0.00000  -0.02124  -0.02170   2.31011
    A6        1.30385  -0.00477   0.00000  -0.01846  -0.01895   1.28490
    A7        2.46303  -0.00265   0.00000  -0.00075  -0.00105   2.46198
    A8        1.89574   0.00041   0.00000  -0.00055  -0.00097   1.89477
    A9        2.84716   0.00314   0.00000   0.00488   0.00456   2.85172
   A10        2.34566  -0.00433   0.00000  -0.01651  -0.01603   2.32963
   A11        2.04179   0.00392   0.00000   0.01707   0.01700   2.05878
    D1        0.00000  -0.00000   0.00000  -0.00000   0.00000   0.00000
    D2        0.00000   0.00000   0.00000   0.00000   0.00000   0.00000
    D3        0.00000  -0.00000   0.00000   0.00000  -0.00000  -0.00000
    D4        3.14159  -0.00000   0.00000   0.00000   0.00000   3.14159
    D5        0.00000  -0.00000   0.00000   0.00000   0.00000   0.00000
    D6        0.00000   0.00000   0.00000  -0.00000  -0.00000  -0.00000
    D7        3.14159  -0.00000   0.00000   0.00000   0.00000   3.14159
    D8       -0.00000  -0.00000   0.00000   0.00000   0.00000   0.00000
    D9        0.00000  -0.00000   0.00000   0.00000  -0.00000  -0.00000
   D10       -0.00000  -0.00000   0.00000  -0.00000   0.00000  -0.00000
   D11       -0.00000  -0.00000   0.00000  -0.00000   0.00000  -0.00000
   D12        0.00000  -0.00000   0.00000  -0.00000  -0.00000  -0.00000
   D13        0.00000  -0.00000   0.00000  -0.00000  -0.00000  -0.00000
   D14        3.14159   0.00000   0.00000  -0.00000   0.00000   3.14159
   D15        3.14159   0.00000   0.00000  -0.00000   0.00000   3.14159
         Item               Value     Threshold  Converged?
 Maximum Force            0.044779     0.000450     NO 
 RMS     Force            0.012561     0.000300     NO 
 Maximum Displacement     0.083334     0.001800     NO 
 RMS     Displacement     0.030128     0.001200     NO 
 Predicted change in Energy=-1.182884D-02
 Lowest energy point so far.  Saving SCF results.
 GradGradGradGradGradGradGradGradGradGradGradGradGradGradGradGradGradGrad

 Leave Link  103 at Wed Jun 19 17:51:56 2019, MaxMem=  4294967296 cpu:               8.7 elap:               0.8
 (Enter /opt/gaussian/gdv-20170407-i10+/gdv/l202.exe)
                          Input orientation:                          
 ---------------------------------------------------------------------
 Center     Atomic      Atomic             Coordinates (Angstroms)
 Number     Number       Type             X           Y           Z
 ---------------------------------------------------------------------
      1          5           0        1.393248   -0.083655    0.000000
      2          5           0        1.663659   -1.601775    0.000000
      3          5           0        0.088066   -1.298721    0.000000
      4          5           0       -1.260496   -0.485069   -0.000000
      5          5           0       -1.560669    1.023315   -0.000000
      6          5           0        0.010628    0.680306   -0.000000
      7          3           0       -0.569135    2.913198   -0.000000
 ---------------------------------------------------------------------
                    Distance matrix (angstroms):
                    1          2          3          4          5
     1  B    0.000000
     2  B    1.542015   0.000000
     3  B    1.783223   1.604473   0.000000
     4  B    2.683932   3.130130   1.575007   0.000000
     5  B    3.154523   4.157811   2.847838   1.537962   0.000000
     6  B    1.579645   2.817873   1.980542   1.724487   1.608300
     7  Li   3.582189   5.036899   4.262883   3.467881   2.134197
                    6          7
     6  B    0.000000
     7  Li   2.306931   0.000000
 Stoichiometry    B6Li(1-,5)
 Framework group  CS[SG(B6Li)]
 Deg. of freedom    11
 Full point group                 CS      NOp   2
 RotChk:  IX=0 Diff= 2.42D-02
 Largest Abelian subgroup         CS      NOp   2
 Largest concise Abelian subgroup C1      NOp   1
                         Standard orientation:                         
 ---------------------------------------------------------------------
 Center     Atomic      Atomic             Coordinates (Angstroms)
 Number     Number       Type             X           Y           Z
 ---------------------------------------------------------------------
      1          5           0        1.395498   -0.057093   -0.000000
      2          5           0        1.691860   -1.570360   -0.000000
      3          5           0        0.111310   -1.294326    0.000000
      4          5           0       -1.250985   -0.503882    0.000000
      5          5           0       -1.576939    0.999142    0.000000
      6          5           0       -0.000000    0.683085   -0.000000
      7          3           0       -0.617907    2.905724    0.000000
 ---------------------------------------------------------------------
 Rotational constants (GHZ):           9.0049218           3.0078402           2.2547159
 Leave Link  202 at Wed Jun 19 17:51:56 2019, MaxMem=  4294967296 cpu:               0.1 elap:               0.0
 (Enter /opt/gaussian/gdv-20170407-i10+/gdv/l301.exe)
 Standard basis: 6-311+G(d) (5D, 7F)
 Ernie: Thresh=  0.10000D-02 Tol=  0.10000D-05 Strict=F.
 There are   119 symmetry adapted cartesian basis functions of A'  symmetry.
 There are    42 symmetry adapted cartesian basis functions of A"  symmetry.
 There are   112 symmetry adapted basis functions of A'  symmetry.
 There are    42 symmetry adapted basis functions of A"  symmetry.
   154 basis functions,   252 primitive gaussians,   161 cartesian basis functions
    19 alpha electrons       15 beta electrons
       nuclear repulsion energy       113.1711487979 Hartrees.
 IExCor=  402 DFT=T Ex+Corr=B3LYP ExCW=0 ScaHFX=  0.200000
 ScaDFX=  0.800000  0.720000  1.000000  0.810000 ScalE2=  1.000000  1.000000
 IRadAn=      5 IRanWt=     -1 IRanGd=            0 ICorTp=0 IEmpDi=  4
 NAtoms=    7 NActive=    7 NUniq=    7 SFac= 1.00D+00 NAtFMM=   60 NAOKFM=F Big=F
 Integral buffers will be    131072 words long.
 Raffenetti 2 integral format.
 Two-electron integral symmetry is turned on.
 Leave Link  301 at Wed Jun 19 17:51:56 2019, MaxMem=  4294967296 cpu:               0.7 elap:               0.1
 (Enter /opt/gaussian/gdv-20170407-i10+/gdv/l302.exe)
 NPDir=0 NMtPBC=     1 NCelOv=     1 NCel=       1 NClECP=     1 NCelD=      1
         NCelK=      1 NCelE2=     1 NClLst=     1 CellRange=     0.0.
 One-electron integrals computed using PRISM.
 One-electron integral symmetry used in STVInt
 NBasis=   154 RedAO= T EigKep=  1.29D-06  NBF=   112    42
 NBsUse=   154 1.00D-06 EigRej= -1.00D+00 NBFU=   112    42
 Precomputing XC quadrature grid using
 IXCGrd= 4 IRadAn=           5 IRanWt=          -1 IRanGd=           0 AccXCQ= 1.00D-12.
 Generated NRdTot=       0 NPtTot=           0 NUsed=           0 NTot=          32
 NSgBfM=   161   161   161   161   161 MxSgAt=     7 MxSgA2=     7.
 Leave Link  302 at Wed Jun 19 17:51:57 2019, MaxMem=  4294967296 cpu:               7.3 elap:               0.7
 (Enter /opt/gaussian/gdv-20170407-i10+/gdv/l303.exe)
 DipDrv:  MaxL=1.
 Leave Link  303 at Wed Jun 19 17:51:57 2019, MaxMem=  4294967296 cpu:               0.3 elap:               0.0
 (Enter /opt/gaussian/gdv-20170407-i10+/gdv/l401.exe)
 Initial guess from the checkpoint file:  "3-1-5-oso.chk"
 B after Tr=    -0.000000   -0.000000   -0.000000
         Rot=    0.999956    0.000000   -0.000000   -0.009335 Ang=  -1.07 deg.
 Guess basis will be translated and rotated to current coordinates.
 JPrj=2 DoOrth=T DoCkMO=T.
 Initial guess orbital symmetries:
 Alpha Orbitals:
       Occupied  (A') (A') (A') (A') (A') (A') (A') (A') (A') (A')
                 (A') (A') (A") (A') (A') (A') (A") (A') (A')
       Virtual   (A") (A') (A') (A") (A') (A') (A") (A') (A") (A')
                 (A') (A') (A') (A") (A') (A") (A') (A") (A') (A')
                 (A') (A') (A") (A") (A') (A') (A") (A') (A") (A')
                 (A') (A") (A') (A') (A') (A") (A') (A') (A') (A')
                 (A') (A') (A') (A') (A') (A') (A') (A') (A") (A')
                 (A") (A') (A') (A") (A') (A") (A") (A') (A') (A')
                 (A") (A") (A') (A') (A") (A") (A') (A') (A') (A')
                 (A') (A') (A') (A') (A') (A") (A') (A') (A") (A")
                 (A') (A') (A') (A") (A") (A') (A') (A") (A') (A')
                 (A') (A") (A') (A') (A") (A") (A') (A") (A') (A')
                 (A') (A') (A') (A") (A") (A') (A') (A') (A") (A')
                 (A') (A") (A") (A") (A") (A') (A") (A') (A') (A')
                 (A') (A') (A') (A') (A') (A') (A') (A') (A') (A')
                 (A') (A') (A') (A') (A')
 Beta  Orbitals:
       Occupied  (A') (A') (A') (A') (A') (A') (A') (A') (A') (A')
                 (A') (A') (A") (A') (A')
       Virtual   (A") (A') (A') (A") (A') (A') (A") (A') (A') (A')
                 (A") (A') (A') (A') (A') (A") (A') (A") (A') (A")
                 (A") (A') (A') (A') (A') (A") (A') (A") (A') (A')
                 (A") (A') (A") (A') (A') (A') (A") (A') (A') (A')
                 (A') (A') (A") (A') (A') (A') (A') (A') (A') (A')
                 (A') (A') (A") (A') (A") (A') (A') (A") (A") (A')
                 (A") (A') (A') (A") (A') (A") (A') (A') (A") (A')
                 (A") (A') (A') (A') (A') (A') (A') (A') (A') (A")
                 (A') (A') (A") (A') (A") (A') (A') (A") (A") (A')
                 (A') (A') (A") (A') (A") (A') (A') (A") (A') (A")
                 (A') (A") (A') (A') (A') (A') (A') (A") (A") (A')
                 (A') (A') (A") (A') (A') (A") (A") (A") (A") (A')
                 (A") (A') (A') (A') (A') (A') (A') (A') (A') (A')
                 (A') (A') (A') (A') (A') (A') (A') (A') (A')
 The electronic state of the initial guess is 5-A".
 Initial guess <Sx>= 0.0000 <Sy>= 0.0000 <Sz>= 2.0000 <S**2>= 6.0205 S= 2.0041
 Generating alternative initial guess.
 ExpMin= 7.40D-03 ExpMax= 2.86D+03 ExpMxC= 4.28D+02 IAcc=3 IRadAn=         5 AccDes= 0.00D+00
 Harris functional with IExCor=  402 and IRadAn=       5 diagonalized for initial guess.
 HarFok:  IExCor=  402 AccDes= 0.00D+00 IRadAn=         5 IDoV= 1 UseB2=F ITyADJ=14
 ICtDFT=  3500011 ScaDFX=  1.000000  1.000000  1.000000  1.000000
 FoFCou: FMM=F IPFlag=           0 FMFlag=      100000 FMFlg1=           0
         NFxFlg=           0 DoJE=T BraDBF=F KetDBF=T FulRan=T
         wScrn=  0.000000 ICntrl=       500 IOpCl=  0 I1Cent=   200000004 NGrid=           0
         NMat0=    1 NMatS0=      1 NMatT0=    0 NMatD0=    1 NMtDS0=    0 NMtDT0=    0
 Petite list used in FoFCou.
 Harris En= -156.605159120399    
 Leave Link  401 at Wed Jun 19 17:51:58 2019, MaxMem=  4294967296 cpu:               8.8 elap:               0.8
 (Enter /opt/gaussian/gdv-20170407-i10+/gdv/l502.exe)
 Keep R1 and R2 ints in memory in symmetry-blocked form, NReq=111667571.
 FoFCou: FMM=F IPFlag=           0 FMFlag=           0 FMFlg1=           0
         NFxFlg=           0 DoJE=F BraDBF=F KetDBF=F FulRan=T
         wScrn=  0.000000 ICntrl=       600 IOpCl=  0 I1Cent=           0 NGrid=           0
         NMat0=    1 NMatS0=  11935 NMatT0=    0 NMatD0=    1 NMtDS0=    0 NMtDT0=    0
 Petite list used in FoFCou.
 UHF open shell SCF:
 Using DIIS extrapolation, IDIIS=  1040.
 NGot=  4294967296 LenX=  4220458826 LenY=  4220432464
 Requested convergence on RMS density matrix=1.00D-08 within 512 cycles.
 Requested convergence on MAX density matrix=1.00D-06.
 Requested convergence on             energy=1.00D-06.
 No special actions if energy rises.

 Cycle   1  Pass 1  IDiag  1:
 E= -156.429368917358    
 DIIS: error= 3.53D-03 at cycle   1 NSaved=   1.
 NSaved= 1 IEnMin= 1 EnMin= -156.429368917358     IErMin= 1 ErrMin= 3.53D-03
 ErrMax= 3.53D-03  0.00D+00 EMaxC= 1.00D-01 BMatC= 1.27D-02 BMatP= 1.27D-02
 IDIUse=3 WtCom= 9.65D-01 WtEn= 3.53D-02
 Coeff-Com:  0.100D+01
 Coeff-En:   0.100D+01
 Coeff:      0.100D+01
 Gap=     0.028 Goal=   None    Shift=    0.000
 Gap=     0.126 Goal=   None    Shift=    0.000
 GapD=    0.028 DampG=0.250 DampE=1.000 DampFc=0.2500 IDamp=-1.
 Damping current iteration by 2.50D-01
 RMSDP=9.61D-03 MaxDP=3.92D-01              OVMax= 3.96D-02

 Cycle   2  Pass 1  IDiag  1:
 E= -156.430517993599     Delta-E=       -0.001149076241 Rises=F Damp=T
 DIIS: error= 2.59D-03 at cycle   2 NSaved=   2.
 NSaved= 2 IEnMin= 2 EnMin= -156.430517993599     IErMin= 2 ErrMin= 2.59D-03
 ErrMax= 2.59D-03  0.00D+00 EMaxC= 1.00D-01 BMatC= 6.59D-03 BMatP= 1.27D-02
 IDIUse=3 WtCom= 9.74D-01 WtEn= 2.59D-02
 Coeff-Com: -0.177D+01 0.277D+01
 Coeff-En:   0.000D+00 0.100D+01
 Coeff:     -0.172D+01 0.272D+01
 Gap=     0.032 Goal=   None    Shift=    0.000
 Gap=     0.114 Goal=   None    Shift=    0.000
 RMSDP=7.53D-03 MaxDP=2.78D-01 DE=-1.15D-03 OVMax= 2.76D-02

 Cycle   3  Pass 1  IDiag  1:
 E= -156.432568310018     Delta-E=       -0.002050316419 Rises=F Damp=F
 DIIS: error= 4.19D-03 at cycle   3 NSaved=   3.
 NSaved= 3 IEnMin= 3 EnMin= -156.432568310018     IErMin= 2 ErrMin= 2.59D-03
 ErrMax= 4.19D-03  0.00D+00 EMaxC= 1.00D-01 BMatC= 3.18D-03 BMatP= 6.59D-03
 IDIUse=3 WtCom= 9.58D-01 WtEn= 4.19D-02
 Coeff-Com: -0.133D+01 0.181D+01 0.520D+00
 Coeff-En:   0.000D+00 0.000D+00 0.100D+01
 Coeff:     -0.127D+01 0.173D+01 0.541D+00
 Gap=     0.030 Goal=   None    Shift=    0.000
 Gap=     0.116 Goal=   None    Shift=    0.000
 RMSDP=1.60D-03 MaxDP=9.80D-02 DE=-2.05D-03 OVMax= 2.69D-02

 Cycle   4  Pass 1  IDiag  1:
 E= -156.433516174808     Delta-E=       -0.000947864790 Rises=F Damp=F
 DIIS: error= 2.42D-03 at cycle   4 NSaved=   4.
 NSaved= 4 IEnMin= 4 EnMin= -156.433516174808     IErMin= 4 ErrMin= 2.42D-03
 ErrMax= 2.42D-03  0.00D+00 EMaxC= 1.00D-01 BMatC= 7.45D-04 BMatP= 3.18D-03
 IDIUse=3 WtCom= 9.76D-01 WtEn= 2.42D-02
 Coeff-Com: -0.739D+00 0.984D+00 0.386D+00 0.369D+00
 Coeff-En:   0.000D+00 0.000D+00 0.216D+00 0.784D+00
 Coeff:     -0.722D+00 0.960D+00 0.382D+00 0.379D+00
 Gap=     0.029 Goal=   None    Shift=    0.000
 Gap=     0.116 Goal=   None    Shift=    0.000
 RMSDP=6.37D-04 MaxDP=4.69D-02 DE=-9.48D-04 OVMax= 1.22D-02

 Cycle   5  Pass 1  IDiag  1:
 E= -156.433803584954     Delta-E=       -0.000287410146 Rises=F Damp=F
 DIIS: error= 5.25D-04 at cycle   5 NSaved=   5.
 NSaved= 5 IEnMin= 5 EnMin= -156.433803584954     IErMin= 5 ErrMin= 5.25D-04
 ErrMax= 5.25D-04  0.00D+00 EMaxC= 1.00D-01 BMatC= 6.14D-05 BMatP= 7.45D-04
 IDIUse=3 WtCom= 9.95D-01 WtEn= 5.25D-03
 Coeff-Com: -0.167D+00 0.216D+00 0.144D+00 0.252D+00 0.555D+00
 Coeff-En:   0.000D+00 0.000D+00 0.000D+00 0.617D-01 0.938D+00
 Coeff:     -0.166D+00 0.215D+00 0.143D+00 0.251D+00 0.557D+00
 Gap=     0.030 Goal=   None    Shift=    0.000
 Gap=     0.115 Goal=   None    Shift=    0.000
 RMSDP=1.76D-04 MaxDP=1.53D-02 DE=-2.87D-04 OVMax= 3.26D-03

 Cycle   6  Pass 1  IDiag  1:
 E= -156.433828851285     Delta-E=       -0.000025266332 Rises=F Damp=F
 DIIS: error= 1.10D-04 at cycle   6 NSaved=   6.
 NSaved= 6 IEnMin= 6 EnMin= -156.433828851285     IErMin= 6 ErrMin= 1.10D-04
 ErrMax= 1.10D-04  0.00D+00 EMaxC= 1.00D-01 BMatC= 4.40D-06 BMatP= 6.14D-05
 IDIUse=3 WtCom= 9.99D-01 WtEn= 1.10D-03
 Coeff-Com:  0.895D-02-0.144D-01 0.276D-01 0.790D-01 0.284D+00 0.615D+00
 Coeff-En:   0.000D+00 0.000D+00 0.000D+00 0.000D+00 0.000D+00 0.100D+01
 Coeff:      0.894D-02-0.144D-01 0.276D-01 0.789D-01 0.283D+00 0.615D+00
 Gap=     0.030 Goal=   None    Shift=    0.000
 Gap=     0.115 Goal=   None    Shift=    0.000
 RMSDP=7.69D-05 MaxDP=4.52D-03 DE=-2.53D-05 OVMax= 1.53D-03

 Cycle   7  Pass 1  IDiag  1:
 E= -156.433831125503     Delta-E=       -0.000002274218 Rises=F Damp=F
 DIIS: error= 7.57D-05 at cycle   7 NSaved=   7.
 NSaved= 7 IEnMin= 7 EnMin= -156.433831125503     IErMin= 7 ErrMin= 7.57D-05
 ErrMax= 7.57D-05  0.00D+00 EMaxC= 1.00D-01 BMatC= 1.13D-06 BMatP= 4.40D-06
 IDIUse=1 WtCom= 1.00D+00 WtEn= 0.00D+00
 Coeff-Com:  0.466D-01-0.622D-01-0.170D-01-0.119D-01 0.494D-01 0.355D+00
 Coeff-Com:  0.640D+00
 Coeff:      0.466D-01-0.622D-01-0.170D-01-0.119D-01 0.494D-01 0.355D+00
 Coeff:      0.640D+00
 Gap=     0.030 Goal=   None    Shift=    0.000
 Gap=     0.115 Goal=   None    Shift=    0.000
 RMSDP=3.42D-05 MaxDP=1.02D-03 DE=-2.27D-06 OVMax= 8.11D-04

 Cycle   8  Pass 1  IDiag  1:
 E= -156.433831898920     Delta-E=       -0.000000773417 Rises=F Damp=F
 DIIS: error= 4.31D-05 at cycle   8 NSaved=   8.
 NSaved= 8 IEnMin= 8 EnMin= -156.433831898920     IErMin= 8 ErrMin= 4.31D-05
 ErrMax= 4.31D-05  0.00D+00 EMaxC= 1.00D-01 BMatC= 5.01D-07 BMatP= 1.13D-06
 IDIUse=1 WtCom= 1.00D+00 WtEn= 0.00D+00
 Coeff-Com:  0.319D-01-0.415D-01-0.247D-01-0.426D-01-0.750D-01 0.442D-02
 Coeff-Com:  0.474D+00 0.674D+00
 Coeff:      0.319D-01-0.415D-01-0.247D-01-0.426D-01-0.750D-01 0.442D-02
 Coeff:      0.474D+00 0.674D+00
 Gap=     0.030 Goal=   None    Shift=    0.000
 Gap=     0.115 Goal=   None    Shift=    0.000
 RMSDP=3.14D-05 MaxDP=1.89D-03 DE=-7.73D-07 OVMax= 7.71D-04

 Cycle   9  Pass 1  IDiag  1:
 E= -156.433832332648     Delta-E=       -0.000000433728 Rises=F Damp=F
 DIIS: error= 9.55D-06 at cycle   9 NSaved=   9.
 NSaved= 9 IEnMin= 9 EnMin= -156.433832332648     IErMin= 9 ErrMin= 9.55D-06
 ErrMax= 9.55D-06  0.00D+00 EMaxC= 1.00D-01 BMatC= 5.69D-08 BMatP= 5.01D-07
 IDIUse=1 WtCom= 1.00D+00 WtEn= 0.00D+00
 Coeff-Com: -0.279D-02 0.403D-02-0.331D-02-0.118D-01-0.319D-01-0.856D-01
 Coeff-Com:  0.833D-02 0.197D+00 0.926D+00
 Coeff:     -0.279D-02 0.403D-02-0.331D-02-0.118D-01-0.319D-01-0.856D-01
 Coeff:      0.833D-02 0.197D+00 0.926D+00
 Gap=     0.030 Goal=   None    Shift=    0.000
 Gap=     0.115 Goal=   None    Shift=    0.000
 RMSDP=1.65D-05 MaxDP=1.33D-03 DE=-4.34D-07 OVMax= 4.02D-04

 Cycle  10  Pass 1  IDiag  1:
 E= -156.433832428345     Delta-E=       -0.000000095697 Rises=F Damp=F
 DIIS: error= 6.07D-06 at cycle  10 NSaved=  10.
 NSaved=10 IEnMin=10 EnMin= -156.433832428345     IErMin=10 ErrMin= 6.07D-06
 ErrMax= 6.07D-06  0.00D+00 EMaxC= 1.00D-01 BMatC= 1.94D-08 BMatP= 5.69D-08
 IDIUse=1 WtCom= 1.00D+00 WtEn= 0.00D+00
 Coeff-Com: -0.124D-01 0.163D-01 0.701D-02 0.914D-02 0.133D-01-0.388D-01
 Coeff-Com: -0.145D+00-0.139D+00 0.435D+00 0.854D+00
 Coeff:     -0.124D-01 0.163D-01 0.701D-02 0.914D-02 0.133D-01-0.388D-01
 Coeff:     -0.145D+00-0.139D+00 0.435D+00 0.854D+00
 Gap=     0.030 Goal=   None    Shift=    0.000
 Gap=     0.115 Goal=   None    Shift=    0.000
 RMSDP=1.29D-05 MaxDP=1.47D-03 DE=-9.57D-08 OVMax= 2.10D-04

 Cycle  11  Pass 1  IDiag  1:
 E= -156.433832456058     Delta-E=       -0.000000027713 Rises=F Damp=F
 DIIS: error= 1.83D-06 at cycle  11 NSaved=  11.
 NSaved=11 IEnMin=11 EnMin= -156.433832456058     IErMin=11 ErrMin= 1.83D-06
 ErrMax= 1.83D-06  0.00D+00 EMaxC= 1.00D-01 BMatC= 1.81D-09 BMatP= 1.94D-08
 IDIUse=1 WtCom= 1.00D+00 WtEn= 0.00D+00
 Coeff-Com: -0.441D-04-0.124D-04 0.104D-02 0.317D-02 0.694D-02 0.132D-01
 Coeff-Com: -0.117D-01-0.544D-01-0.166D+00 0.650D-01 0.114D+01
 Coeff:     -0.441D-04-0.124D-04 0.104D-02 0.317D-02 0.694D-02 0.132D-01
 Coeff:     -0.117D-01-0.544D-01-0.166D+00 0.650D-01 0.114D+01
 Gap=     0.030 Goal=   None    Shift=    0.000
 Gap=     0.115 Goal=   None    Shift=    0.000
 RMSDP=8.29D-06 MaxDP=8.40D-04 DE=-2.77D-08 OVMax= 1.23D-04

 Cycle  12  Pass 1  IDiag  1:
 E= -156.433832460381     Delta-E=       -0.000000004323 Rises=F Damp=F
 DIIS: error= 7.23D-07 at cycle  12 NSaved=  12.
[...]
 Iteration     5 Dimension    33 NMult    30 NNew      3
 CISAX will form     3 AO SS matrices at one time.
 NMat=     3 NSing=     3 JSym2X=-1.
 Root      1 not converged, maximum delta is    0.001449404048615
 Root      2 not converged, maximum delta is    0.003426335845572
 Root      3 has converged.
 Excitation Energies [eV] at current iteration:
 Root      1 :     0.509500789934510   Change is   -0.000021408440453
 Root      2 :     0.705854383385487   Change is   -0.000485025776026
 Root      3 :     0.876567258528799   Change is   -0.000006778227210
 Iteration     6 Dimension    35 NMult    33 NNew      2
 CISAX will form     2 AO SS matrices at one time.
 NMat=     2 NSing=     2 JSym2X=-1.
 Root      1 has converged.
 Root      2 not converged, maximum delta is    0.002733238931330
 Root      3 has converged.
 Excitation Energies [eV] at current iteration:
 Root      1 :     0.509499027975855   Change is   -0.000001761958655
 Root      2 :     0.705686538544304   Change is   -0.000167844841182
 Root      3 :     0.876567069718888   Change is   -0.000000188809911
 Iteration     7 Dimension    36 NMult    35 NNew      1
 CISAX will form     1 AO SS matrices at one time.
 NMat=     1 NSing=     1 JSym2X=-1.
 Root      1 has converged.
 Root      2 not converged, maximum delta is    0.001014840754010
 Root      3 has converged.
 Excitation Energies [eV] at current iteration:
 Root      1 :     0.509499027975867   Change is    0.000000000000012
 Root      2 :     0.705648887584070   Change is   -0.000037650960235
 Root      3 :     0.876567069718888   Change is    0.000000000000000
 Iteration     8 Dimension    37 NMult    36 NNew      1
 CISAX will form     1 AO SS matrices at one time.
 NMat=     1 NSing=     1 JSym2X=-1.
 Root      1 has converged.
 Root      2 has converged.
 Root      3 has converged.
 Excitation Energies [eV] at current iteration:
 Root      1 :     0.509499027975879   Change is    0.000000000000012
 Root      2 :     0.705636574709190   Change is   -0.000012312874880
 Root      3 :     0.876567069718870   Change is   -0.000000000000018
 Convergence achieved on expansion vectors.
 ***********************************************************************
 Stability analysis using <AA,BB:AA,BB> singles matrix:
 ***********************************************************************
 1PDM for each excited state written to RWF  633
 Ground to excited state transition densities written to RWF  633

 Eigenvectors of the stability matrix:
 
 Eigenvector   1:  5.011-A"   Eigenvalue= 0.0187237  <S**2>=6.027
     19A -> 20A        0.98623
     19A -> 23A       -0.13982
 
 Eigenvector   2:  5.009-A'   Eigenvalue= 0.0259317  <S**2>=6.022
     19A -> 21A        0.98870
 
 Eigenvector   3:  5.010-A"   Eigenvalue= 0.0322132  <S**2>=6.025
     19A -> 20A        0.14165
     19A -> 23A        0.98772
 The wavefunction is stable under the perturbations considered.
 Leave Link  914 at Wed Jun 19 17:58:02 2019, MaxMem=  4294967296 cpu:             416.0 elap:              35.2
 (Enter /opt/gaussian/gdv-20170407-i10+/gdv/l601.exe)
 Copying SCF densities to generalized density rwf, IOpCl= 1 IROHF=0.

 **********************************************************************

            Population analysis using the SCF Density.

 **********************************************************************

 Orbital symmetries:
 Alpha Orbitals:
       Occupied  (A') (A') (A') (A') (A') (A') (A') (A') (A') (A')
                 (A') (A") (A') (A') (A') (A') (A") (A') (A')
       Virtual   (A") (A') (A') (A") (A') (A') (A") (A') (A") (A')
                 (A') (A') (A') (A") (A') (A") (A') (A') (A") (A')
                 (A') (A') (A") (A") (A') (A') (A") (A') (A') (A")
                 (A') (A") (A') (A') (A') (A") (A') (A') (A') (A')
                 (A') (A') (A') (A') (A') (A') (A') (A') (A') (A")
                 (A") (A') (A") (A') (A') (A") (A') (A") (A') (A")
                 (A') (A") (A') (A") (A') (A") (A') (A') (A') (A')
                 (A') (A') (A') (A') (A') (A') (A") (A') (A") (A')
                 (A') (A") (A') (A") (A") (A') (A') (A") (A') (A')
                 (A') (A") (A') (A') (A") (A") (A') (A') (A") (A')
                 (A') (A') (A') (A") (A") (A') (A') (A') (A") (A')
                 (A') (A") (A") (A") (A") (A") (A') (A') (A') (A')
                 (A') (A') (A') (A') (A') (A') (A') (A') (A') (A')
                 (A') (A') (A') (A') (A')
 Beta  Orbitals:
       Occupied  (A') (A') (A') (A') (A') (A') (A') (A') (A') (A')
                 (A') (A") (A') (A') (A')
       Virtual   (A") (A') (A') (A') (A") (A') (A") (A') (A') (A')
                 (A") (A') (A') (A') (A") (A') (A') (A') (A") (A")
                 (A') (A") (A') (A') (A') (A') (A") (A") (A') (A')
                 (A") (A") (A') (A') (A') (A') (A") (A') (A') (A')
                 (A') (A") (A') (A') (A') (A') (A') (A') (A') (A')
                 (A') (A') (A") (A') (A") (A') (A') (A") (A') (A")
                 (A") (A') (A') (A") (A') (A") (A') (A') (A") (A")
                 (A') (A') (A') (A') (A') (A') (A') (A') (A') (A')
                 (A") (A') (A') (A") (A') (A") (A') (A") (A") (A')
                 (A') (A") (A') (A') (A') (A") (A') (A') (A") (A")
                 (A') (A') (A") (A') (A') (A') (A') (A") (A") (A')
                 (A') (A') (A") (A') (A') (A") (A") (A") (A") (A")
                 (A') (A') (A') (A') (A') (A') (A') (A') (A') (A')
                 (A') (A') (A') (A') (A') (A') (A') (A') (A')
 The electronic state is 5-A".
 Alpha  occ. eigenvalues --   -6.63689  -6.63350  -6.62192  -6.61833  -6.61591
 Alpha  occ. eigenvalues --   -6.61276  -1.87914  -0.56317  -0.46362  -0.31905
 Alpha  occ. eigenvalues --   -0.29317  -0.18883  -0.18132  -0.16026  -0.15603
 Alpha  occ. eigenvalues --   -0.12475  -0.09096  -0.08016   0.01372
 Alpha virt. eigenvalues --    0.05596   0.06075   0.06561   0.06633   0.06812
 Alpha virt. eigenvalues --    0.07443   0.08317   0.10669   0.10889   0.11706
 Alpha virt. eigenvalues --    0.12268   0.13048   0.13339   0.14314   0.14428
 Alpha virt. eigenvalues --    0.15192   0.15692   0.16282   0.16427   0.17198
 Alpha virt. eigenvalues --    0.17415   0.18272   0.18816   0.19102   0.20006
 Alpha virt. eigenvalues --    0.20206   0.20437   0.21704   0.22163   0.22173
 Alpha virt. eigenvalues --    0.23399   0.23494   0.24140   0.24879   0.25246
 Alpha virt. eigenvalues --    0.25857   0.26267   0.27002   0.28827   0.29915
 Alpha virt. eigenvalues --    0.30525   0.32895   0.36053   0.37720   0.39408
 Alpha virt. eigenvalues --    0.42097   0.44417   0.46166   0.47068   0.47317
 Alpha virt. eigenvalues --    0.49654   0.51866   0.52471   0.52513   0.53644
 Alpha virt. eigenvalues --    0.53882   0.54072   0.54523   0.56794   0.57913
 Alpha virt. eigenvalues --    0.59103   0.59811   0.61435   0.61733   0.62549
 Alpha virt. eigenvalues --    0.63814   0.63920   0.66188   0.67006   0.69927
 Alpha virt. eigenvalues --    0.71339   0.73536   0.73822   0.76322   0.78189
 Alpha virt. eigenvalues --    0.80692   0.82169   0.83482   0.84092   0.84904
 Alpha virt. eigenvalues --    0.87648   0.88176   0.89508   0.98607   1.06001
 Alpha virt. eigenvalues --    1.11750   1.21132   1.21447   1.25281   1.28869
 Alpha virt. eigenvalues --    1.32706   1.33189   1.34101   1.36854   1.38064
 Alpha virt. eigenvalues --    1.42736   1.45881   1.47983   1.49192   1.55306
 Alpha virt. eigenvalues --    1.58443   1.59218   1.65584   1.67347   1.68809
 Alpha virt. eigenvalues --    1.72519   1.81409   1.92137   1.92276   1.98063
 Alpha virt. eigenvalues --    2.00130   2.04552   2.05100   2.09965   2.11604
 Alpha virt. eigenvalues --    2.14989   2.20133   2.22560   2.29979   2.31098
 Alpha virt. eigenvalues --    2.37417   2.42861   2.44769   2.54104   2.69686
 Alpha virt. eigenvalues --    2.71966   2.78545   2.90805   3.91981  13.96438
 Alpha virt. eigenvalues --   14.68761  14.96681  15.02320  15.29969  15.32254
  Beta  occ. eigenvalues --   -6.62217  -6.62012  -6.61875  -6.61739  -6.61347
  Beta  occ. eigenvalues --   -6.61127  -1.87529  -0.54831  -0.43513  -0.28861
  Beta  occ. eigenvalues --   -0.28090  -0.16519  -0.15805  -0.13915  -0.13061
  Beta virt. eigenvalues --   -0.00937  -0.00385   0.03724   0.06493   0.06506
  Beta virt. eigenvalues --    0.07024   0.07122   0.07447   0.07905   0.09675
  Beta virt. eigenvalues --    0.11392   0.12544   0.12659   0.12987   0.13155
  Beta virt. eigenvalues --    0.13432   0.13843   0.14709   0.15027   0.15754
  Beta virt. eigenvalues --    0.16614   0.16831   0.17568   0.18180   0.18387
  Beta virt. eigenvalues --    0.19187   0.19519   0.19579   0.20660   0.20772
  Beta virt. eigenvalues --    0.21314   0.22500   0.22802   0.22900   0.23950
  Beta virt. eigenvalues --    0.24703   0.25049   0.25370   0.25935   0.27558
  Beta virt. eigenvalues --    0.27961   0.29086   0.30127   0.30406   0.30902
  Beta virt. eigenvalues --    0.34817   0.36808   0.38974   0.41640   0.43867
  Beta virt. eigenvalues --    0.45696   0.48085   0.48380   0.48510   0.51309
  Beta virt. eigenvalues --    0.52905   0.53427   0.53800   0.55021   0.55172
  Beta virt. eigenvalues --    0.55706   0.56018   0.58186   0.58793   0.59904
  Beta virt. eigenvalues --    0.60877   0.62910   0.63185   0.63807   0.65038
  Beta virt. eigenvalues --    0.66114   0.67545   0.69457   0.72123   0.73671
  Beta virt. eigenvalues --    0.74834   0.75566   0.77903   0.79927   0.82108
  Beta virt. eigenvalues --    0.83921   0.85312   0.86536   0.87167   0.89350
  Beta virt. eigenvalues --    0.90367   0.91354   1.01890   1.08851   1.14229
  Beta virt. eigenvalues --    1.23045   1.25082   1.27700   1.30749   1.35026
  Beta virt. eigenvalues --    1.35128   1.36764   1.39963   1.40339   1.44122
  Beta virt. eigenvalues --    1.47751   1.51222   1.52592   1.56913   1.59834
  Beta virt. eigenvalues --    1.61361   1.68731   1.69370   1.71237   1.74631
  Beta virt. eigenvalues --    1.83044   1.93484   1.93641   1.98832   2.01130
  Beta virt. eigenvalues --    2.06162   2.06364   2.11746   2.12287   2.16786
  Beta virt. eigenvalues --    2.21687   2.23760   2.31118   2.32830   2.41012
  Beta virt. eigenvalues --    2.44202   2.47101   2.55454   2.70310   2.73159
  Beta virt. eigenvalues --    2.79584   2.92093   3.92705  13.97185  14.69835
  Beta virt. eigenvalues --   14.97216  15.03280  15.30701  15.33049
          Condensed to atoms (all electrons):
               1          2          3          4          5          6
     1  B   11.070275  -1.087091   1.683041  -0.304260  -3.466179  -2.769065
     2  B   -1.087091   7.143140   0.305808  -2.005655   0.295725   0.778990
     3  B    1.683041   0.305808   6.843041  -1.540973  -1.072667  -1.408269
     4  B   -0.304260  -2.005655  -1.540973   8.400705  -0.224298   0.893615
     5  B   -3.466179   0.295725  -1.072667  -0.224298   8.653473   0.812722
     6  B   -2.769065   0.778990  -1.408269   0.893615   0.812722   6.383942
     7  Li   0.023815  -0.083473  -0.495825  -0.115362   0.579246   0.189408
               7
     1  B    0.023815
     2  B   -0.083473
     3  B   -0.495825
     4  B   -0.115362
     5  B    0.579246
     6  B    0.189408
     7  Li   3.526915
          Atomic-Atomic Spin Densities.
               1          2          3          4          5          6
     1  B    1.915890  -0.329095   0.506765  -0.243169  -0.470464  -0.730369
     2  B   -0.329095   1.470798  -0.188154   0.108382   0.080228   0.140440
     3  B    0.506765  -0.188154   0.128646   0.020516  -0.301211  -0.179290
     4  B   -0.243169   0.108382   0.020516   0.195644   0.132617   0.000818
     5  B   -0.470464   0.080228  -0.301211   0.132617   1.595687   0.015412
     6  B   -0.730369   0.140440  -0.179290   0.000818   0.015412   0.494677
     7  Li   0.014113  -0.021298  -0.022049  -0.059931   0.066146   0.030552
               7
     1  B    0.014113
     2  B   -0.021298
     3  B   -0.022049
     4  B   -0.059931
     5  B    0.066146
     6  B    0.030552
     7  Li   1.056737
 Mulliken charges and spin densities:
               1          2
     1  B   -0.150537   0.663671
     2  B   -0.347445   1.261302
     3  B    0.685844  -0.034776
     4  B   -0.103773   0.154877
     5  B   -0.578021   1.118415
     6  B    0.118656  -0.227761
     7  Li  -0.624724   1.064271
 Sum of Mulliken charges =  -1.00000   4.00000
 Mulliken charges and spin densities with hydrogens summed into heavy atoms:
               1          2
     1  B   -0.150537   0.663671
     2  B   -0.347445   1.261302
     3  B    0.685844  -0.034776
     4  B   -0.103773   0.154877
     5  B   -0.578021   1.118415
     6  B    0.118656  -0.227761
     7  Li  -0.624724   1.064271
 Electronic spatial extent (au):  <R**2>=            535.1696
 Charge=             -1.0000 electrons
 Dipole moment (field-independent basis, Debye):
    X=             -1.8821    Y=             -8.6623    Z=              0.0000  Tot=              8.8644
 Quadrupole moment (field-independent basis, Debye-Ang):
   XX=            -67.8656   YY=           -116.2837   ZZ=            -53.8372
   XY=             -3.7995   XZ=             -0.0000   YZ=              0.0000
 Traceless Quadrupole moment (field-independent basis, Debye-Ang):
   XX=             11.4633   YY=            -36.9549   ZZ=             25.4916
   XY=             -3.7995   XZ=             -0.0000   YZ=              0.0000
 Octapole moment (field-independent basis, Debye-Ang**2):
  XXX=            -26.6088  YYY=           -418.1192  ZZZ=              0.0000  XYY=            -49.0622
  XXY=            -57.5902  XXZ=              0.0000  XZZ=             -8.7388  YZZ=            -59.4334
  YYZ=              0.0000  XYZ=              0.0000
 Hexadecapole moment (field-independent basis, Debye-Ang**3):
 XXXX=           -732.1218 YYYY=          -3538.2969 ZZZZ=           -280.6980 XXXY=              1.6916
 XXXZ=             -0.0000 YYYX=           -145.4611 YYYZ=              0.0000 ZZZX=             -0.0000
 ZZZY=              0.0000 XXYY=           -551.3216 XXZZ=           -158.7964 YYZZ=           -448.9751
 XXYZ=              0.0000 YYXZ=             -0.0000 ZZXY=             -8.7237
 N-N= 1.130250173355D+02 E-N=-5.912097184311D+02  KE= 1.555842047444D+02
 Symmetry A'   KE= 1.537116982010D+02
 Symmetry A"   KE= 1.872506543351D+00
 Symmetry A'   SP= 3.000000000000D+00
 Symmetry A"   SP= 1.000000000000D+00
                          Isotropic Fermi Contact Couplings
        Atom                 a.u.       MegaHertz       Gauss      10(-4) cm-1
     1  B(11)              0.03163      11.34340       4.04761       3.78375
     2  B(11)              0.39108     140.23723      50.04013      46.77811
     3  B(11)              0.00839       3.00872       1.07359       1.00360
     4  B(11)              0.02632       9.43966       3.36831       3.14873
     5  B(11)              0.34018     121.98734      43.52812      40.69060
     6  B(11)              0.05356      19.20593       6.85315       6.40641
     7  Li(7)              0.08887      38.59605      13.77203      12.87426
 --------------------------------------------------------
       Center         ----  Spin Dipole Couplings  ----
                      3XX-RR        3YY-RR        3ZZ-RR
 --------------------------------------------------------
     1   Atom       -0.123214      0.074695      0.048519
     2   Atom       -0.155011      0.192312     -0.037300
     3   Atom        0.008069      0.047721     -0.055790
     4   Atom       -0.097064      0.062522      0.034541
     5   Atom       -0.135076      0.151237     -0.016161
     6   Atom        0.012637      0.048149     -0.060787
     7   Atom        0.008858      0.014071     -0.022929
 --------------------------------------------------------
                        XY            XZ            YZ
 --------------------------------------------------------
     1   Atom       -0.032739      0.000000     -0.000000
     2   Atom       -0.183976      0.000000     -0.000000
     3   Atom       -0.062723      0.000000     -0.000000
     4   Atom       -0.015513      0.000000     -0.000000
     5   Atom       -0.196188      0.000000     -0.000000
     6   Atom       -0.062941      0.000000     -0.000000
     7   Atom        0.022430      0.000000      0.000000
 --------------------------------------------------------


 ---------------------------------------------------------------------------------
              Anisotropic Spin Dipole Couplings in Principal Axis System
 ---------------------------------------------------------------------------------

       Atom             a.u.   MegaHertz   Gauss  10(-4) cm-1        Axes

              Baa    -0.1285   -21.999    -7.850    -7.338  0.9873  0.1591  0.0000
     1 B(11)  Bbb     0.0485     8.307     2.964     2.771  0.0000  0.0000  1.0000
              Bcc     0.0800    13.692     4.886     4.567 -0.1591  0.9873 -0.0000
 
              Baa    -0.2343   -40.123   -14.317   -13.384  0.9183  0.3960  0.0000
     2 B(11)  Bbb    -0.0373    -6.386    -2.279    -2.130  0.0000  0.0000  1.0000
              Bcc     0.2716    46.509    16.596    15.514 -0.3960  0.9183 -0.0000
 
              Baa    -0.0558    -9.552    -3.408    -3.186  0.0000  0.0000  1.0000
     3 B(11)  Bbb    -0.0379    -6.487    -2.315    -2.164  0.8067  0.5910 -0.0000
              Bcc     0.0937    16.039     5.723     5.350 -0.5910  0.8067 -0.0000
 
              Baa    -0.0986   -16.875    -6.021    -5.629  0.9954  0.0959  0.0000
     4 B(11)  Bbb     0.0345     5.914     2.110     1.973  0.0000  0.0000  1.0000
              Bcc     0.0640    10.961     3.911     3.656 -0.0959  0.9954 -0.0000
 
              Baa    -0.2348   -40.199   -14.344   -13.409  0.8915  0.4531 -0.0000
     5 B(11)  Bbb    -0.0162    -2.767    -0.987    -0.923  0.0000  0.0000  1.0000
              Bcc     0.2509    42.966    15.331    14.332 -0.4531  0.8915 -0.0000
 
              Baa    -0.0608   -10.408    -3.714    -3.472  0.0000  0.0000  1.0000
     6 B(11)  Bbb    -0.0350    -5.993    -2.139    -1.999  0.7973  0.6035 -0.0000
              Bcc     0.0958    16.401     5.852     5.471 -0.6035  0.7973 -0.0000
 
              Baa    -0.0229    -4.755    -1.697    -1.586  0.0000  0.0000  1.0000
     7 Li(7)  Bbb    -0.0111    -2.305    -0.823    -0.769  0.7468 -0.6650 -0.0000
              Bcc     0.0340     7.060     2.519     2.355  0.6650  0.7468 -0.0000
 

 ---------------------------------------------------------------------------------

 No NMR shielding tensors so no spin-rotation constants.
 Leave Link  601 at Wed Jun 19 17:58:02 2019, MaxMem=  4294967296 cpu:               2.7 elap:               0.3
 (Enter /opt/gaussian/gdv-20170407-i10+/gdv/l9999.exe)
 Unable to Open any file for archive entry.
 1\1\GINC-NODE18\Stability\UB3LYP\Gen\B6Li1(1-,5)\HHARB\19-Jun-2019\0\\
 #p ub3lyp geom=allcheck guess=read chkbasis stable scf=(novaracc,maxcy
 cles=512) int=(acc2e=12,grid=ultrafine)\\Title Card Required\\-1,5\B,0
 ,1.3806350711,-0.0108541956,0.\B,0,1.7367124748,-1.5192492263,0.\B,0,0
 .1062238177,-1.1609665486,0.\B,0,-1.3647160925,-0.5887584595,0.\B,0,-1
 .6958719162,0.9312050683,0.\B,0,-0.0972002061,0.5712511321,0.\Li,0,-0.
 3004831488,2.9249722296,0.\\Version=ES64L-GDVRevI.10+\State=5-A"\HF=-1
 56.4427703\S2=6.025466\S2-1=0.\S2A=6.000192\RMSD=1.178e-09\Dipole=-0.2
 643653,-3.4774977,0.\Quadrupole=8.6109314,-27.5633441,18.9524127,2.189
 5985,0.,0.\PG=CS [SG(B6Li1)]\\@
 The archive entry for this job was punched.


      SCIENCE SANS CONSCIENCE N'EST QUE RUINE DE L'AME.

                                                  -- RABELAIS
 Job cpu time:       0 days  0 hours  7 minutes 50.5 seconds.
 Elapsed time:       0 days  0 hours  0 minutes 40.4 seconds.
 File lengths (MBytes):  RWF=    125 Int=      0 D2E=      0 Chk=     67 Scr=      1
 Normal termination of Gaussian DV at Wed Jun 19 17:58:02 2019.
