************************************************************
This is node02.cluster of cluster Pinconning.
Date: Wed Jun 19 17:50:11 PDT 2019
************************************************************
 Set GAUSS_MDEF to "32GB".
 Set GAUSS_PDEF to "12".
 Entering Gaussian System, Link 0=gdv
 Initial command:
 /opt/gaussian/gdv-20170407-i10+/gdv/local/l1.exe "/tmp/673939.1.allnodes.q/Gau-32551.inp" -scrdir="/tmp/673939.1.allnodes.q/"
 Default is to use a total of  12 processors:
                               12 via shared-memory
                                1 via Linda
 Entering Link 1 = /opt/gaussian/gdv-20170407-i10+/gdv/local/l1.exe PID=     32552.
  
 Copyright (c) 1988-2017, Gaussian, Inc.  All Rights Reserved.
  
 This is the private, development version of
 the Gaussian(R) DV system of programs. It is based on
 the Gaussian(R) 16 system (copyright 2016, Gaussian, Inc.),
 the Gaussian(R) 09 system (copyright 2009, Gaussian, Inc.),
 the Gaussian(R) 03 system (copyright 2003, Gaussian, Inc.),
 the Gaussian(R) 98 system (copyright 1998, Gaussian, Inc.),
 the Gaussian(R) 94 system (copyright 1995, Gaussian, Inc.),
 the Gaussian 92(TM) system (copyright 1992, Gaussian, Inc.),
 the Gaussian 90(TM) system (copyright 1990, Gaussian, Inc.),
 the Gaussian 88(TM) system (copyright 1988, Gaussian, Inc.),
 the Gaussian 86(TM) system (copyright 1986, Carnegie Mellon
 University), and the Gaussian 82(TM) system (copyright 1983,
 Carnegie Mellon University). Gaussian is a federally registered
 trademark of Gaussian, Inc.
  
 This software contains proprietary and confidential information,
 including trade secrets, belonging to Gaussian, Inc.
  
 This software is provided under written license and may be
 used, copied, transmitted, or stored only in accord with that
 written license.
  
 The following legend is applicable only to US Government
 contracts under FAR:
  
                    RESTRICTED RIGHTS LEGEND
  
 Use, reproduction and disclosure by the US Government is
 subject to restrictions as set forth in subparagraphs (a)
 and (c) of the Commercial Computer Software - Restricted
 Rights clause in FAR 52.227-19.
  
 Gaussian, Inc.
 340 Quinnipiac St., Bldg. 40, Wallingford CT 06492
  
  
 ---------------------------------------------------------------
 Warning -- This program may not be used in any manner that
 competes with the business of Gaussian, Inc. or will provide
 assistance to any competitor of Gaussian, Inc.  The licensee
 of this program is prohibited from giving any competitor of
 Gaussian, Inc. access to this program.  By using this program,
 the user acknowledges that Gaussian, Inc. is engaged in the
 business of creating and licensing software in the field of
 computational chemistry and represents and warrants to the
 licensee that it is not a competitor of Gaussian, Inc. and that
 it will not use this program in any manner prohibited above.
 ---------------------------------------------------------------
  

 Cite this work as:
 Gaussian Development Version, Revision I.10+,
 M. J. Frisch, G. W. Trucks, H. B. Schlegel, G. E. Scuseria, 
 M. A. Robb, J. R. Cheeseman, G. Scalmani, V. Barone, 
 G. A. Petersson, H. Nakatsuji, X. Li, M. Caricato, A. V. Marenich, 
 J. Bloino, B. G. Janesko, R. Gomperts, B. Mennucci, H. P. Hratchian, 
 J. V. Ortiz, A. F. Izmaylov, J. L. Sonnenberg, D. Williams-Young, 
 F. Ding, F. Lipparini, F. Egidi, J. Goings, B. Peng, A. Petrone, 
 T. Henderson, D. Ranasinghe, V. G. Zakrzewski, J. Gao, N. Rega, 
 G. Zheng, W. Liang, M. Hada, M. Ehara, K. Toyota, R. Fukuda, 
 J. Hasegawa, M. Ishida, T. Nakajima, Y. Honda, O. Kitao, H. Nakai, 
 T. Vreven, K. Throssell, J. A. Montgomery, Jr., J. E. Peralta, 
 F. Ogliaro, M. J. Bearpark, J. J. Heyd, E. N. Brothers, K. N. Kudin, 
 V. N. Staroverov, T. A. Keith, R. Kobayashi, J. Normand, 
 K. Raghavachari, A. P. Rendell, J. C. Burant, S. S. Iyengar, 
 J. Tomasi, M. Cossi, J. M. Millam, M. Klene, C. Adamo, R. Cammi, 
 J. W. Ochterski, R. L. Martin, K. Morokuma, O. Farkas, 
 J. B. Foresman, and D. J. Fox, Gaussian, Inc., Wallingford CT, 2016.
 
 *******************************************
 Gaussian DV:  ES64L-GDVRevI.10+ 27-Mar-2017
                 19-Jun-2019 
 *******************************************
 %chk=4-1-5-oso.chk
 ----------------------------------------------------------------------
 #p ub3lyp/6-311+G* scf=(novaracc,maxcycles=512) int=(acc2e=12,grid=ult
 rafine) opt freq
 ----------------------------------------------------------------------
 1/18=20,19=15,26=4,38=1/1,3;
 2/9=110,12=2,17=6,18=5,40=1/2;
 3/5=4,6=6,7=11,11=2,25=1,27=12,30=1,71=1,74=-5,75=-5,116=2/1,2,3;
 4//1;
 5/5=2,7=512,38=1,87=12/2;
 6/7=2,8=2,9=2,10=2,28=1,87=12/1;
 7/87=12/1,2,3,16;
 1/18=20,19=15,26=4/3(2);
 2/9=110/2;
 99//99;
 2/9=110/2;
 3/5=4,6=6,7=11,11=2,25=1,27=12,30=1,71=1,74=-5,75=-5,116=2/1,2,3;
 4/5=5,16=3,69=1/1;
 5/5=2,7=512,38=1,87=12/2;
 7/87=12/1,2,3,16;
 1/18=20,19=15,26=4/3(-5);
 2/9=110/2;
 6/7=2,8=2,9=2,10=2,19=2,28=1,87=12/1;
 99/9=1/99;
 Leave Link    1 at Wed Jun 19 17:50:11 2019, MaxMem=           0 cpu:               0.9 elap:               0.1
 (Enter /opt/gaussian/gdv-20170407-i10+/gdv/l101.exe)
 -------------------
 Title Card Required
 -------------------
 Symbolic Z-matrix:
 Charge = -1 Multiplicity = 5
 Li                    0.        0.       -2.3123 
 B                     0.        0.       -0.2361 
 B                     0.        1.6367   -0.7049 
 B                     0.       -1.6367   -0.7049 
 B                    -0.41      1.3503    0.775 
 B                     0.41     -1.3503    0.775 
 B                     0.        0.        1.4832 
 
 Add atom      1 valence  3 ND=      2 dihedral       2      1      3      4
 Add atom      2 valence  6 ND=      0 dihedral       1      2      3      5
 Add atom      2 valence  6 ND=      0 dihedral       1      2      4      5
 Add atom      2 valence  6 ND=      0 dihedral       1      2      3      6
 Add atom      2 valence  6 ND=      0 dihedral       1      2      4      6
 Add atom      2 valence  6 ND=      0 dihedral       1      2      5      6
 Add atom      2 valence  6 ND=      0 dihedral       1      2      3      7
 Add atom      2 valence  6 ND=      0 dihedral       1      2      4      7
 Add atom      2 valence  6 ND=      0 dihedral       1      2      5      7
 Add atom      2 valence  6 ND=      0 dihedral       1      2      6      7
 Add atom      7 valence  3 ND=      2 dihedral       6      5      7      2
 ITRead=  0  0  0  0  0  0  0
 MicOpt= -1 -1 -1 -1 -1 -1 -1
 NAtoms=      7 NQM=        7 NQMF=       0 NMMI=      0 NMMIF=      0
                NMic=       0 NMicF=      0.
                    Isotopes and Nuclear Properties:
 (Nuclear quadrupole moments (NQMom) in fm**2, nuclear magnetic moments (NMagM)
  in nuclear magnetons)

  Atom         1           2           3           4           5           6           7
 IAtWgt=           7          11          11          11          11          11          11
 AtmWgt=   7.0160045  11.0093053  11.0093053  11.0093053  11.0093053  11.0093053  11.0093053
 NucSpn=           3           3           3           3           3           3           3
 AtZEff=  -0.0000000  -0.0000000  -0.0000000  -0.0000000  -0.0000000  -0.0000000  -0.0000000
 NQMom=   -4.0100000   4.0590000   4.0590000   4.0590000   4.0590000   4.0590000   4.0590000
 NMagM=    3.2564240   2.6886370   2.6886370   2.6886370   2.6886370   2.6886370   2.6886370
 AtZNuc=   3.0000000   5.0000000   5.0000000   5.0000000   5.0000000   5.0000000   5.0000000
 Leave Link  101 at Wed Jun 19 17:50:12 2019, MaxMem=  4294967296 cpu:               4.8 elap:               0.4
 (Enter /opt/gaussian/gdv-20170407-i10+/gdv/l103.exe)

 GradGradGradGradGradGradGradGradGradGradGradGradGradGradGradGradGradGrad
 Berny optimization.
 Initialization pass.
                           ----------------------------
                           !    Initial Parameters    !
                           ! (Angstroms and Degrees)  !
 --------------------------                            --------------------------
 ! Name  Definition              Value          Derivative Info.                !
 --------------------------------------------------------------------------------
 ! R1    R(1,2)                  2.0762         estimate D2E/DX2                !
 ! R2    R(1,3)                  2.294          estimate D2E/DX2                !
 ! R3    R(1,4)                  2.294          estimate D2E/DX2                !
 ! R4    R(2,3)                  1.7025         estimate D2E/DX2                !
 ! R5    R(2,4)                  1.7025         estimate D2E/DX2                !
 ! R6    R(2,5)                  1.736          estimate D2E/DX2                !
 ! R7    R(2,6)                  1.736          estimate D2E/DX2                !
 ! R8    R(2,7)                  1.7193         estimate D2E/DX2                !
 ! R9    R(3,5)                  1.5621         estimate D2E/DX2                !
 ! R10   R(4,6)                  1.5621         estimate D2E/DX2                !
 ! R11   R(5,7)                  1.5789         estimate D2E/DX2                !
 ! R12   R(6,7)                  1.5789         estimate D2E/DX2                !
 ! A1    A(3,1,4)               91.0349         estimate D2E/DX2                !
 ! A2    A(1,2,5)              125.6214         estimate D2E/DX2                !
 ! A3    A(1,2,6)              125.6214         estimate D2E/DX2                !
 ! A4    A(3,2,4)              148.0334         estimate D2E/DX2                !
 ! A5    A(3,2,6)              155.2474         estimate D2E/DX2                !
 ! A6    A(3,2,7)              105.9833         estimate D2E/DX2                !
 ! A7    A(4,2,5)              155.2474         estimate D2E/DX2                !
 ! A8    A(4,2,7)              105.9833         estimate D2E/DX2                !
 ! A9    A(5,2,6)              108.7571         estimate D2E/DX2                !
 ! A10   A(1,3,5)              122.2086         estimate D2E/DX2                !
 ! A11   A(1,4,6)              122.2086         estimate D2E/DX2                !
 ! A12   A(3,5,7)              120.9018         estimate D2E/DX2                !
 ! A13   A(4,6,7)              120.9018         estimate D2E/DX2                !
 ! A14   A(5,7,6)              126.7003         estimate D2E/DX2                !
 ! A15   L(1,2,7,3,-1)         180.0            estimate D2E/DX2                !
 ! A16   L(1,2,7,3,-2)         180.0            estimate D2E/DX2                !
 ! D1    D(2,1,3,4)              0.0            estimate D2E/DX2                !
 ! D2    D(4,1,3,5)            -18.0712         estimate D2E/DX2                !
 ! D3    D(3,1,4,6)            -18.0712         estimate D2E/DX2                !
 ! D4    D(1,2,3,5)            163.0331         estimate D2E/DX2                !
 ! D5    D(1,2,3,6)           -145.6627         estimate D2E/DX2                !
 ! D6    D(1,2,3,7)            180.0            estimate D2E/DX2                !
 ! D7    D(1,2,4,5)           -145.6627         estimate D2E/DX2                !
 ! D8    D(1,2,4,6)            163.0331         estimate D2E/DX2                !
 ! D9    D(1,2,4,7)            180.0            estimate D2E/DX2                !
 ! D10   D(1,2,5,6)            180.0            estimate D2E/DX2                !
 ! D11   D(1,2,5,7)            180.0            estimate D2E/DX2                !
 ! D12   D(1,2,6,7)            180.0            estimate D2E/DX2                !
 ! D13   D(1,3,5,7)             38.3182         estimate D2E/DX2                !
 ! D14   D(1,4,6,7)             38.3182         estimate D2E/DX2                !
 ! D15   D(3,5,7,6)            -20.7793         estimate D2E/DX2                !
 ! D16   D(6,5,7,2)              0.0            estimate D2E/DX2                !
 ! D17   D(4,6,7,5)            -20.7793         estimate D2E/DX2                !
 --------------------------------------------------------------------------------
 Trust Radius=3.00D-01 FncErr=1.00D-07 GrdErr=1.00D-06 EigMax=2.50D+02 EigMin=1.00D-04
 Number of steps in this run=     55 maximum allowed number of steps=    100.
 GradGradGradGradGradGradGradGradGradGradGradGradGradGradGradGradGradGrad

 Leave Link  103 at Wed Jun 19 17:50:12 2019, MaxMem=  4294967296 cpu:               0.1 elap:               0.0
 (Enter /opt/gaussian/gdv-20170407-i10+/gdv/l202.exe)
                          Input orientation:                          
 ---------------------------------------------------------------------
 Center     Atomic      Atomic             Coordinates (Angstroms)
 Number     Number       Type             X           Y           Z
 ---------------------------------------------------------------------
      1          3           0        0.000000    0.000000   -2.312300
      2          5           0        0.000000    0.000000   -0.236100
      3          5           0        0.000000    1.636700   -0.704900
      4          5           0        0.000000   -1.636700   -0.704900
      5          5           0       -0.410000    1.350300    0.775000
      6          5           0        0.410000   -1.350300    0.775000
      7          5           0        0.000000    0.000000    1.483200
 ---------------------------------------------------------------------
                    Distance matrix (angstroms):
                    1          2          3          4          5
     1  Li   0.000000
     2  B    2.076200   0.000000
     3  B    2.294019   1.702516   0.000000
     4  B    2.294019   1.702516   3.273400   0.000000
     5  B    3.394530   1.736011   1.562123   3.358627   0.000000
     6  B    3.394530   1.736011   3.358627   1.562123   2.822347
     7  B    3.795500   1.719300   2.732502   2.732502   1.578910
                    6          7
     6  B    0.000000
     7  B    1.578910   0.000000
 Stoichiometry    B6Li(1-,5)
 Framework group  C2[C2(LiBB),X(B4)]
 Deg. of freedom     7
 Full point group                 C2      NOp   2
 Largest Abelian subgroup         C2      NOp   2
 Largest concise Abelian subgroup C2      NOp   2
                         Standard orientation:                         
 ---------------------------------------------------------------------
 Center     Atomic      Atomic             Coordinates (Angstroms)
 Number     Number       Type             X           Y           Z
 ---------------------------------------------------------------------
      1          3           0        0.000000   -0.000000   -2.312288
      2          5           0        0.000000   -0.000000   -0.236088
      3          5           0       -0.000000    1.636700   -0.704888
      4          5           0       -0.000000   -1.636700   -0.704888
      5          5           0       -0.410000    1.350300    0.775012
      6          5           0        0.410000   -1.350300    0.775012
      7          5           0       -0.000000    0.000000    1.483212
 ---------------------------------------------------------------------
 Rotational constants (GHZ):           5.6997014           4.9146443           2.7002326
 Leave Link  202 at Wed Jun 19 17:50:12 2019, MaxMem=  4294967296 cpu:               0.1 elap:               0.0
 (Enter /opt/gaussian/gdv-20170407-i10+/gdv/l301.exe)
 Standard basis: 6-311+G(d) (5D, 7F)
 Ernie: Thresh=  0.10000D-02 Tol=  0.10000D-05 Strict=F.
 There are    85 symmetry adapted cartesian basis functions of A   symmetry.
 There are    76 symmetry adapted cartesian basis functions of B   symmetry.
 There are    80 symmetry adapted basis functions of A   symmetry.
 There are    74 symmetry adapted basis functions of B   symmetry.
   154 basis functions,   252 primitive gaussians,   161 cartesian basis functions
    19 alpha electrons       15 beta electrons
       nuclear repulsion energy       115.9736315775 Hartrees.
 IExCor=  402 DFT=T Ex+Corr=B3LYP ExCW=0 ScaHFX=  0.200000
 ScaDFX=  0.800000  0.720000  1.000000  0.810000 ScalE2=  1.000000  1.000000
 IRadAn=      5 IRanWt=     -1 IRanGd=            0 ICorTp=0 IEmpDi=  4
 NAtoms=    7 NActive=    7 NUniq=    5 SFac= 1.96D+00 NAtFMM=   60 NAOKFM=F Big=F
 Integral buffers will be    131072 words long.
 Raffenetti 2 integral format.
 Two-electron integral symmetry is turned on.
 Leave Link  301 at Wed Jun 19 17:50:12 2019, MaxMem=  4294967296 cpu:               0.7 elap:               0.1
 (Enter /opt/gaussian/gdv-20170407-i10+/gdv/l302.exe)
 NPDir=0 NMtPBC=     1 NCelOv=     1 NCel=       1 NClECP=     1 NCelD=      1
         NCelK=      1 NCelE2=     1 NClLst=     1 CellRange=     0.0.
 One-electron integrals computed using PRISM.
 One-electron integral symmetry used in STVInt
 NBasis=   154 RedAO= T EigKep=  5.21D-06  NBF=    80    74
 NBsUse=   154 1.00D-06 EigRej= -1.00D+00 NBFU=    80    74
 Precomputing XC quadrature grid using
 IXCGrd= 4 IRadAn=           5 IRanWt=          -1 IRanGd=           0 AccXCQ= 1.00D-12.
 Generated NRdTot=       0 NPtTot=           0 NUsed=           0 NTot=          32
 NSgBfM=   161   161   161   161   161 MxSgAt=     7 MxSgA2=     7.
 Leave Link  302 at Wed Jun 19 17:50:12 2019, MaxMem=  4294967296 cpu:               2.1 elap:               0.2
 (Enter /opt/gaussian/gdv-20170407-i10+/gdv/l303.exe)
 DipDrv:  MaxL=1.
 Leave Link  303 at Wed Jun 19 17:50:12 2019, MaxMem=  4294967296 cpu:               0.3 elap:               0.0
 (Enter /opt/gaussian/gdv-20170407-i10+/gdv/l401.exe)
 ExpMin= 7.40D-03 ExpMax= 2.86D+03 ExpMxC= 4.28D+02 IAcc=3 IRadAn=         5 AccDes= 0.00D+00
 Harris functional with IExCor=  402 and IRadAn=       5 diagonalized for initial guess.
 HarFok:  IExCor=  402 AccDes= 0.00D+00 IRadAn=         5 IDoV= 1 UseB2=F ITyADJ=14
 ICtDFT=  3500011 ScaDFX=  1.000000  1.000000  1.000000  1.000000
 FoFCou: FMM=F IPFlag=           0 FMFlag=      100000 FMFlg1=           0
         NFxFlg=           0 DoJE=T BraDBF=F KetDBF=T FulRan=T
         wScrn=  0.000000 ICntrl=       500 IOpCl=  0 I1Cent=   200000004 NGrid=           0
         NMat0=    1 NMatS0=      1 NMatT0=    0 NMatD0=    1 NMtDS0=    0 NMtDT0=    0
 Petite list used in FoFCou.
 Harris En= -156.595068053267    
 JPrj=0 DoOrth=F DoCkMO=F.
 Initial guess orbital symmetries:
 Alpha Orbitals:
       Occupied  (A) (A) (B) (A) (B) (A) (A) (A) (B) (A) (B) (A)
                 (B) (A) (B) (B) (A) (A) (B)
       Virtual   (B) (A) (A) (A) (B) (B) (A) (B) (B) (A) (A) (B)
                 (B) (A) (A) (B) (B) (A) (A) (B) (A) (B) (A) (B)
                 (A) (A) (B) (B) (B) (A) (B) (A) (A) (B) (A) (B)
                 (A) (B) (A) (A) (B) (B) (A) (B) (B) (A) (A) (B)
                 (B) (B) (A) (A) (A) (B) (B) (A) (B) (A) (A) (B)
                 (A) (B) (A) (B) (B) (B) (A) (B) (A) (B) (A) (A)
                 (A) (B) (A) (B) (B) (A) (B) (A) (A) (B) (A) (B)
                 (A) (B) (B) (A) (B) (A) (B) (A) (A) (A) (B) (B)
                 (A) (B) (A) (B) (B) (A) (A) (A) (B) (A) (B) (A)
                 (B) (B) (A) (B) (A) (B) (A) (B) (A) (B) (A) (B)
                 (A) (B) (A) (A) (B) (B) (A) (B) (A) (A) (B) (A)
                 (A) (A) (B)
 Beta  Orbitals:
       Occupied  (A) (A) (B) (A) (B) (A) (A) (A) (B) (A) (B) (A)
                 (B) (A) (B)
       Virtual   (B) (A) (A) (B) (B) (A) (A) (A) (B) (B) (A) (B)
                 (B) (A) (A) (B) (B) (A) (A) (B) (B) (A) (A) (B)
                 (A) (B) (A) (B) (A) (A) (B) (B) (B) (A) (B) (A)
                 (A) (B) (A) (B) (A) (B) (A) (A) (B) (B) (A) (B)
                 (B) (A) (A) (B) (B) (B) (A) (A) (A) (B) (B) (A)
                 (B) (A) (A) (B) (A) (B) (A) (B) (B) (B) (A) (B)
                 (A) (B) (A) (A) (A) (B) (A) (B) (B) (A) (B) (A)
                 (A) (B) (A) (B) (A) (B) (B) (A) (B) (A) (B) (A)
                 (A) (A) (B) (B) (A) (B) (A) (B) (B) (A) (A) (A)
                 (B) (A) (B) (A) (B) (B) (A) (B) (A) (B) (A) (B)
                 (A) (B) (A) (B) (A) (B) (A) (A) (B) (B) (A) (B)
                 (A) (A) (B) (A) (A) (A) (B)
 The electronic state of the initial guess is 5-A.
 Initial guess <Sx>= 0.0000 <Sy>= 0.0000 <Sz>= 2.0000 <S**2>= 6.0000 S= 2.0000
 Leave Link  401 at Wed Jun 19 17:50:12 2019, MaxMem=  4294967296 cpu:               4.2 elap:               0.4
 (Enter /opt/gaussian/gdv-20170407-i10+/gdv/l502.exe)
 Keep R1 and R2 ints in memory in symmetry-blocked form, NReq=106884543.
 FoFCou: FMM=F IPFlag=           0 FMFlag=           0 FMFlg1=           0
         NFxFlg=           0 DoJE=F BraDBF=F KetDBF=F FulRan=T
         wScrn=  0.000000 ICntrl=       600 IOpCl=  0 I1Cent=           0 NGrid=           0
         NMat0=    1 NMatS0=  11935 NMatT0=    0 NMatD0=    1 NMtDS0=    0 NMtDT0=    0
 Petite list used in FoFCou.
 UHF open shell SCF:
 Using DIIS extrapolation, IDIIS=  1040.
 NGot=  4294967296 LenX=  4223647678 LenY=  4223621316
 Requested convergence on RMS density matrix=1.00D-08 within 512 cycles.
 Requested convergence on MAX density matrix=1.00D-06.
 Requested convergence on             energy=1.00D-06.
 No special actions if energy rises.

 Cycle   1  Pass 1  IDiag  1:
 E= -156.057997430982    
 DIIS: error= 5.41D-02 at cycle   1 NSaved=   1.
 NSaved= 1 IEnMin= 1 EnMin= -156.057997430982     IErMin= 1 ErrMin= 5.41D-02
 ErrMax= 5.41D-02  0.00D+00 EMaxC= 1.00D-01 BMatC= 9.20D-01 BMatP= 9.20D-01
 IDIUse=3 WtCom= 4.59D-01 WtEn= 5.41D-01
 Coeff-Com:  0.100D+01
 Coeff-En:   0.100D+01
 Coeff:      0.100D+01
 Gap=     0.065 Goal=   None    Shift=    0.000
 Gap=     0.023 Goal=   None    Shift=    0.000
 GapD=    0.023 DampG=0.250 DampE=0.500 DampFc=0.2500 IDamp=-1.
 Damping current iteration by 2.50D-01
 RMSDP=3.86D+00 MaxDP=1.47D+02              OVMax= 9.85D-01

 Cycle   2  Pass 1  IDiag  1:
 E= -155.924244871235     Delta-E=        0.133752559748 Rises=F Damp=T
 DIIS: error= 1.01D-02 at cycle   2 NSaved=   2.
 NSaved= 2 IEnMin= 1 EnMin= -156.057997430982     IErMin= 2 ErrMin= 1.01D-02
 ErrMax= 1.01D-02  0.00D+00 EMaxC= 1.00D-01 BMatC= 7.97D-02 BMatP= 9.20D-01
 IDIUse=3 WtCom= 8.99D-01 WtEn= 1.01D-01
 Coeff-Com: -0.569D-01 0.106D+01
 Coeff-En:   0.644D+00 0.356D+00
 Coeff:      0.139D-01 0.986D+00
 Gap=    -0.213 Goal=   None    Shift=    0.000
 Gap=    -0.014 Goal=   None    Shift=    0.000
 RMSDP=9.66D-01 MaxDP=3.70D+01 DE= 1.34D-01 OVMax= 9.96D-01

 Cycle   3  Pass 1  IDiag  1:
 E= -156.250907019589     Delta-E=       -0.326662148354 Rises=F Damp=F
 DIIS: error= 3.35D-02 at cycle   3 NSaved=   3.
 NSaved= 3 IEnMin= 3 EnMin= -156.250907019589     IErMin= 2 ErrMin= 1.01D-02
 ErrMax= 3.35D-02  0.00D+00 EMaxC= 1.00D-01 BMatC= 3.50D-01 BMatP= 7.97D-02
 IDIUse=2 WtCom= 0.00D+00 WtEn= 1.00D+00
 Coeff-En:   0.000D+00 0.321D-01 0.968D+00
 Coeff:      0.000D+00 0.321D-01 0.968D+00
 Gap=     0.076 Goal=   None    Shift=    0.000
 Gap=     0.019 Goal=   None    Shift=    0.000
 RMSDP=3.18D-01 MaxDP=2.98D+01 DE=-3.27D-01 OVMax= 9.93D-01

 Cycle   4  Pass 1  IDiag  1:
 E= -153.724094401424     Delta-E=        2.526812618165 Rises=F Damp=F
 DIIS: error= 1.55D-01 at cycle   4 NSaved=   4.
 NSaved= 4 IEnMin= 3 EnMin= -156.250907019589     IErMin= 2 ErrMin= 1.01D-02
 ErrMax= 1.55D-01  0.00D+00 EMaxC= 1.00D-01 BMatC= 4.97D+00 BMatP= 7.97D-02
 IDIUse=2 WtCom= 0.00D+00 WtEn= 1.00D+00
 Coeff-En:   0.000D+00 0.000D+00 0.886D+00 0.114D+00
 Coeff:      0.000D+00 0.000D+00 0.886D+00 0.114D+00
 Gap=    -0.047 Goal=   None    Shift=    0.000
 Gap=     0.035 Goal=   None    Shift=    0.000
 RMSDP=2.28D-01 MaxDP=2.22D+01 DE= 2.53D+00 OVMax= 8.38D-01

 Cycle   5  Pass 1  IDiag  1:
 E= -156.142763223149     Delta-E=       -2.418668821725 Rises=F Damp=F
 DIIS: error= 5.18D-02 at cycle   5 NSaved=   5.
 NSaved= 5 IEnMin= 3 EnMin= -156.250907019589     IErMin= 2 ErrMin= 1.01D-02
 ErrMax= 5.18D-02  0.00D+00 EMaxC= 1.00D-01 BMatC= 6.05D-01 BMatP= 7.97D-02
 IDIUse=2 WtCom= 0.00D+00 WtEn= 1.00D+00
 Coeff-En:   0.000D+00 0.000D+00 0.584D+00 0.000D+00 0.416D+00
 Coeff:      0.000D+00 0.000D+00 0.584D+00 0.000D+00 0.416D+00
 Gap=     0.005 Goal=   None    Shift=    0.000
 Gap=     0.084 Goal=   None    Shift=    0.000
 RMSDP=9.91D-02 MaxDP=7.59D+00 DE=-2.42D+00 OVMax= 5.19D-01

 Cycle   6  Pass 1  IDiag  1:
 E= -156.421232533265     Delta-E=       -0.278469310116 Rises=F Damp=F
 DIIS: error= 3.67D-03 at cycle   6 NSaved=   6.
 NSaved= 6 IEnMin= 6 EnMin= -156.421232533265     IErMin= 6 ErrMin= 3.67D-03
 ErrMax= 3.67D-03  0.00D+00 EMaxC= 1.00D-01 BMatC= 4.76D-03 BMatP= 7.97D-02
 IDIUse=3 WtCom= 9.63D-01 WtEn= 3.67D-02
 Coeff-Com: -0.263D-01 0.115D+00 0.271D-01-0.160D-01 0.674D-01 0.832D+00
 Coeff-En:   0.000D+00 0.000D+00 0.000D+00 0.000D+00 0.000D+00 0.100D+01
 Coeff:     -0.253D-01 0.111D+00 0.261D-01-0.154D-01 0.649D-01 0.838D+00
 Gap=     0.033 Goal=   None    Shift=    0.000
 Gap=     0.096 Goal=   None    Shift=    0.000
 RMSDP=3.44D-03 MaxDP=1.58D-01 DE=-2.78D-01 OVMax= 4.48D-02

 Cycle   7  Pass 1  IDiag  1:
 E= -156.422157372711     Delta-E=       -0.000924839446 Rises=F Damp=F
 DIIS: error= 2.91D-03 at cycle   7 NSaved=   7.
 NSaved= 7 IEnMin= 7 EnMin= -156.422157372711     IErMin= 7 ErrMin= 2.91D-03
 ErrMax= 2.91D-03  0.00D+00 EMaxC= 1.00D-01 BMatC= 4.79D-03 BMatP= 4.76D-03
 IDIUse=3 WtCom= 9.71D-01 WtEn= 2.91D-02
 Coeff-Com: -0.328D-01 0.652D-01-0.173D-01-0.136D-02-0.940D-03 0.486D+00
 Coeff-Com:  0.501D+00
 Coeff-En:   0.000D+00 0.000D+00 0.000D+00 0.000D+00 0.000D+00 0.304D+00
 Coeff-En:   0.696D+00
 Coeff:     -0.318D-01 0.633D-01-0.168D-01-0.132D-02-0.912D-03 0.481D+00
 Coeff:      0.506D+00
 Gap=     0.031 Goal=   None    Shift=    0.000
 Gap=     0.093 Goal=   None    Shift=    0.000
 RMSDP=6.55D-03 MaxDP=3.33D-01 DE=-9.25D-04 OVMax= 3.21D-02

 Cycle   8  Pass 1  IDiag  1:
 E= -156.424438288230     Delta-E=       -0.002280915519 Rises=F Damp=F
 DIIS: error= 1.38D-03 at cycle   8 NSaved=   8.
 NSaved= 8 IEnMin= 8 EnMin= -156.424438288230     IErMin= 8 ErrMin= 1.38D-03
 ErrMax= 1.38D-03  0.00D+00 EMaxC= 1.00D-01 BMatC= 6.11D-04 BMatP= 4.76D-03
 IDIUse=3 WtCom= 9.86D-01 WtEn= 1.38D-02
 Coeff-Com: -0.814D-02 0.944D-02-0.221D-01 0.208D-04 0.423D-02-0.884D-01
 Coeff-Com: -0.361D-01 0.114D+01
 Coeff-En:   0.000D+00 0.000D+00 0.000D+00 0.000D+00 0.000D+00 0.000D+00
 Coeff-En:   0.000D+00 0.100D+01
 Coeff:     -0.803D-02 0.931D-02-0.218D-01 0.205D-04 0.417D-02-0.872D-01
 Coeff:     -0.356D-01 0.114D+01
 Gap=     0.028 Goal=   None    Shift=    0.000
 Gap=     0.093 Goal=   None    Shift=    0.000
 RMSDP=7.18D-03 MaxDP=3.90D-01 DE=-2.28D-03 OVMax= 3.82D-02

 Cycle   9  Pass 1  IDiag  1:
 E= -156.424914995326     Delta-E=       -0.000476707096 Rises=F Damp=F
 DIIS: error= 2.30D-04 at cycle   9 NSaved=   9.
 NSaved= 9 IEnMin= 9 EnMin= -156.424914995326     IErMin= 9 ErrMin= 2.30D-04
 ErrMax= 2.30D-04  0.00D+00 EMaxC= 1.00D-01 BMatC= 1.45D-05 BMatP= 6.11D-04
 IDIUse=3 WtCom= 9.98D-01 WtEn= 2.30D-03
 Coeff-Com:  0.301D-03-0.152D-02-0.410D-03-0.644D-04-0.358D-03-0.170D-01
 Coeff-Com: -0.218D-01-0.870D-01 0.113D+01
 Coeff-En:   0.000D+00 0.000D+00 0.000D+00 0.000D+00 0.000D+00 0.000D+00
 Coeff-En:   0.000D+00 0.000D+00 0.100D+01
 Coeff:      0.301D-03-0.151D-02-0.409D-03-0.642D-04-0.357D-03-0.170D-01
 Coeff:     -0.217D-01-0.868D-01 0.113D+01
 Gap=     0.028 Goal=   None    Shift=    0.000
 Gap=     0.094 Goal=   None    Shift=    0.000
 RMSDP=4.06D-03 MaxDP=2.35D-01 DE=-4.77D-04 OVMax= 1.93D-02

 Cycle  10  Pass 1  IDiag  1:
 E= -156.424948971383     Delta-E=       -0.000033976058 Rises=F Damp=F
 DIIS: error= 1.71D-04 at cycle  10 NSaved=  10.
 NSaved=10 IEnMin=10 EnMin= -156.424948971383     IErMin=10 ErrMin= 1.71D-04
 ErrMax= 1.71D-04  0.00D+00 EMaxC= 1.00D-01 BMatC= 7.43D-06 BMatP= 1.45D-05
 IDIUse=3 WtCom= 9.98D-01 WtEn= 1.71D-03
 Coeff-Com:  0.808D-03-0.512D-03 0.251D-02 0.115D-03-0.145D-02 0.214D-01
 Coeff-Com:  0.120D-01-0.108D+00 0.187D+00 0.886D+00
 Coeff-En:   0.000D+00 0.000D+00 0.000D+00 0.000D+00 0.000D+00 0.000D+00
 Coeff-En:   0.000D+00 0.000D+00 0.000D+00 0.100D+01
 Coeff:      0.807D-03-0.512D-03 0.250D-02 0.115D-03-0.145D-02 0.214D-01
 Coeff:      0.120D-01-0.108D+00 0.186D+00 0.886D+00
 Gap=     0.028 Goal=   None    Shift=    0.000
 Gap=     0.094 Goal=   None    Shift=    0.000
 RMSDP=4.87D-04 MaxDP=3.21D-02 DE=-3.40D-05 OVMax= 3.84D-03

 Cycle  11  Pass 1  IDiag  1:
 E= -156.424954876816     Delta-E=       -0.000005905433 Rises=F Damp=F
 DIIS: error= 8.17D-05 at cycle  11 NSaved=  11.
 NSaved=11 IEnMin=11 EnMin= -156.424954876816     IErMin=11 ErrMin= 8.17D-05
 ErrMax= 8.17D-05  0.00D+00 EMaxC= 1.00D-01 BMatC= 1.46D-06 BMatP= 7.43D-06
 IDIUse=1 WtCom= 1.00D+00 WtEn= 0.00D+00
 Coeff-Com:  0.339D-03-0.340D-03 0.340D-03 0.274D-04-0.672D-03 0.636D-02
 Coeff-Com:  0.587D-02-0.274D-02-0.105D+00-0.144D+00 0.124D+01
 Coeff:      0.339D-03-0.340D-03 0.340D-03 0.274D-04-0.672D-03 0.636D-02
 Coeff:      0.587D-02-0.274D-02-0.105D+00-0.144D+00 0.124D+01
 Gap=     0.028 Goal=   None    Shift=    0.000
 Gap=     0.094 Goal=   None    Shift=    0.000
 RMSDP=3.55D-04 MaxDP=2.41D-02 DE=-5.91D-06 OVMax= 3.38D-03

 Cycle  12  Pass 1  IDiag  1:
 E= -156.424956535334     Delta-E=       -0.000001658518 Rises=F Damp=F
 DIIS: error= 3.29D-05 at cycle  12 NSaved=  12.
 NSaved=12 IEnMin=12 EnMin= -156.424956535334     IErMin=12 ErrMin= 3.29D-05
 ErrMax= 3.29D-05  0.00D+00 EMaxC= 1.00D-01 BMatC= 3.89D-07 BMatP= 1.46D-06
 IDIUse=1 WtCom= 1.00D+00 WtEn= 0.00D+00
 Coeff-Com:  0.569D-04-0.102D-03-0.367D-03 0.164D-04-0.592D-04-0.112D-02
 Coeff-Com:  0.571D-03 0.213D-01-0.854D-01-0.385D+00 0.686D+00 0.764D+00
 Coeff:      0.569D-04-0.102D-03-0.367D-03 0.164D-04-0.592D-04-0.112D-02
 Coeff:      0.571D-03 0.213D-01-0.854D-01-0.385D+00 0.686D+00 0.764D+00
 Gap=     0.028 Goal=   None    Shift=    0.000
 Gap=     0.094 Goal=   None    Shift=    0.000
 RMSDP=6.78D-05 MaxDP=4.01D-03 DE=-1.66D-06 OVMax= 1.12D-03

 Cycle  13  Pass 1  IDiag  1:
 E= -156.424956884477     Delta-E=       -0.000000349142 Rises=F Damp=F
 DIIS: error= 7.59D-06 at cycle  13 NSaved=  13.
 NSaved=13 IEnMin=13 EnMin= -156.424956884477     IErMin=13 ErrMin= 7.59D-06
 ErrMax= 7.59D-06  0.00D+00 EMaxC= 1.00D-01 BMatC= 1.57D-08 BMatP= 3.89D-07
 IDIUse=1 WtCom= 1.00D+00 WtEn= 0.00D+00
 Coeff-Com: -0.131D-04-0.653D-05-0.176D-03 0.433D-05 0.550D-04-0.687D-03
 Coeff-Com: -0.914D-04-0.699D-03 0.107D-01-0.349D-01-0.552D-01 0.106D+00
 Coeff-Com:  0.975D+00
 Coeff:     -0.131D-04-0.653D-05-0.176D-03 0.433D-05 0.550D-04-0.687D-03
 Coeff:     -0.914D-04-0.699D-03 0.107D-01-0.349D-01-0.552D-01 0.106D+00
 Coeff:      0.975D+00
 Gap=     0.028 Goal=   None    Shift=    0.000
 Gap=     0.094 Goal=   None    Shift=    0.000
 RMSDP=8.62D-05 MaxDP=4.75D-03 DE=-3.49D-07 OVMax= 2.31D-04

 Cycle  14  Pass 1  IDiag  1:
 E= -156.424956903251     Delta-E=       -0.000000018774 Rises=F Damp=F
 DIIS: error= 4.69D-06 at cycle  14 NSaved=  14.
 NSaved=14 IEnMin=14 EnMin= -156.424956903251     IErMin=14 ErrMin= 4.69D-06
 ErrMax= 4.69D-06  0.00D+00 EMaxC= 1.00D-01 BMatC= 5.79D-09 BMatP= 1.57D-08
 IDIUse=1 WtCom= 1.00D+00 WtEn= 0.00D+00
 Coeff-Com: -0.277D-04 0.234D-04 0.177D-04-0.198D-05 0.238D-04-0.171D-03
 Coeff-Com: -0.167D-03-0.195D-02 0.799D-02 0.359D-01-0.644D-01-0.278D-01
 Coeff-Com: -0.121D+00 0.117D+01
 Coeff:     -0.277D-04 0.234D-04 0.177D-04-0.198D-05 0.238D-04-0.171D-03
 Coeff:     -0.167D-03-0.195D-02 0.799D-02 0.359D-01-0.644D-01-0.278D-01
 Coeff:     -0.121D+00 0.117D+01
 Gap=     0.028 Goal=   None    Shift=    0.000
 Gap=     0.094 Goal=   None    Shift=    0.000
 RMSDP=4.97D-05 MaxDP=2.95D-03 DE=-1.88D-08 OVMax= 1.97D-04

 Cycle  15  Pass 1  IDiag  1:
 E= -156.424956909925     Delta-E=       -0.000000006674 Rises=F Damp=F
 DIIS: error= 1.74D-06 at cycle  15 NSaved=  15.
 NSaved=15 IEnMin=15 EnMin= -156.424956909925     IErMin=15 ErrMin= 1.74D-06
 ErrMax= 1.74D-06  0.00D+00 EMaxC= 1.00D-01 BMatC= 8.45D-10 BMatP= 5.79D-09
 IDIUse=1 WtCom= 1.00D+00 WtEn= 0.00D+00
 Coeff-Com: -0.227D-05 0.619D-05 0.141D-04-0.122D-05 0.823D-05-0.648D-04
 Coeff-Com: -0.103D-03 0.589D-03-0.311D-02-0.155D-02 0.107D-01 0.167D-01
 Coeff-Com: -0.152D+00-0.638D-01 0.119D+01
 Coeff:     -0.227D-05 0.619D-05 0.141D-04-0.122D-05 0.823D-05-0.648D-04
 Coeff:     -0.103D-03 0.589D-03-0.311D-02-0.155D-02 0.107D-01 0.167D-01
 Coeff:     -0.152D+00-0.638D-01 0.119D+01
 Gap=     0.028 Goal=   None    Shift=    0.000
 Gap=     0.094 Goal=   None    Shift=    0.000
 RMSDP=1.12D-05 MaxDP=6.50D-04 DE=-6.67D-09 OVMax= 6.63D-05

 Cycle  16  Pass 1  IDiag  1:
 E= -156.424956911141     Delta-E=       -0.000000001216 Rises=F Damp=F
 DIIS: error= 6.38D-07 at cycle  16 NSaved=  16.
 NSaved=16 IEnMin=16 EnMin= -156.424956911141     IErMin=16 ErrMin= 6.38D-07
 ErrMax= 6.38D-07  0.00D+00 EMaxC= 1.00D-01 BMatC= 7.12D-11 BMatP= 8.45D-10
 IDIUse=1 WtCom= 1.00D+00 WtEn= 0.00D+00
 Coeff-Com:  0.518D-05-0.231D-05-0.508D-05-0.280D-06 0.373D-05-0.595D-05
 Coeff-Com:  0.168D-04 0.300D-03-0.147D-02-0.656D-02 0.946D-02 0.941D-02
 Coeff-Com:  0.106D-01-0.181D+00 0.557D-01 0.110D+01
 Coeff:      0.518D-05-0.231D-05-0.508D-05-0.280D-06 0.373D-05-0.595D-05
 Coeff:      0.168D-04 0.300D-03-0.147D-02-0.656D-02 0.946D-02 0.941D-02
 Coeff:      0.106D-01-0.181D+00 0.557D-01 0.110D+01
 Gap=     0.028 Goal=   None    Shift=    0.000
 Gap=     0.094 Goal=   None    Shift=    0.000
 RMSDP=1.53D-06 MaxDP=9.92D-05 DE=-1.22D-09 OVMax= 2.53D-05

 Cycle  17  Pass 1  IDiag  1:
 E= -156.424956911300     Delta-E=       -0.000000000159 Rises=F Damp=F
 DIIS: error= 1.38D-07 at cycle  17 NSaved=  17.
 NSaved=17 IEnMin=17 EnMin= -156.424956911300     IErMin=17 ErrMin= 1.38D-07
 ErrMax= 1.38D-07  0.00D+00 EMaxC= 1.00D-01 BMatC= 6.62D-12 BMatP= 7.12D-11
 IDIUse=1 WtCom= 1.00D+00 WtEn= 0.00D+00
 Coeff-Com: -0.157D-05 0.690D-06 0.147D-05-0.312D-07-0.141D-06-0.588D-05
 Coeff-Com:  0.189D-04-0.120D-03 0.807D-03 0.109D-02-0.285D-02-0.366D-02
 Coeff-Com:  0.158D-01 0.553D-01-0.194D+00-0.252D+00 0.138D+01
 Coeff:     -0.157D-05 0.690D-06 0.147D-05-0.312D-07-0.141D-06-0.588D-05
 Coeff:      0.189D-04-0.120D-03 0.807D-03 0.109D-02-0.285D-02-0.366D-02
 Coeff:      0.158D-01 0.553D-01-0.194D+00-0.252D+00 0.138D+01
 Gap=     0.028 Goal=   None    Shift=    0.000
 Gap=     0.094 Goal=   None    Shift=    0.000
 RMSDP=5.44D-07 MaxDP=3.11D-05 DE=-1.59D-10 OVMax= 1.15D-05

 Cycle  18  Pass 1  IDiag  1:
 E= -156.424956911322     Delta-E=       -0.000000000022 Rises=F Damp=F
 DIIS: error= 5.69D-08 at cycle  18 NSaved=  18.
 NSaved=18 IEnMin=18 EnMin= -156.424956911322     IErMin=18 ErrMin= 5.69D-08
 ErrMax= 5.69D-08  0.00D+00 EMaxC= 1.00D-01 BMatC= 9.65D-13 BMatP= 6.62D-12
 IDIUse=1 WtCom= 1.00D+00 WtEn= 0.00D+00
 Coeff-Com: -0.120D-06 0.547D-07-0.384D-06-0.166D-07 0.179D-06-0.286D-05
 Coeff-Com: -0.105D-04 0.784D-05-0.823D-04 0.561D-04-0.593D-04 0.923D-03
 Coeff-Com: -0.264D-02-0.416D-02 0.337D-01-0.840D-02-0.306D+00 0.129D+01
 Coeff:     -0.120D-06 0.547D-07-0.384D-06-0.166D-07 0.179D-06-0.286D-05
 Coeff:     -0.105D-04 0.784D-05-0.823D-04 0.561D-04-0.593D-04 0.923D-03
 Coeff:     -0.264D-02-0.416D-02 0.337D-01-0.840D-02-0.306D+00 0.129D+01
 Gap=     0.028 Goal=   None    Shift=    0.000
 Gap=     0.094 Goal=   None    Shift=    0.000
 RMSDP=4.77D-07 MaxDP=2.71D-05 DE=-2.24D-11 OVMax= 1.65D-06

 Cycle  19  Pass 1  IDiag  1:
 E= -156.424956911324     Delta-E=       -0.000000000002 Rises=F Damp=F
 DIIS: error= 1.47D-08 at cycle  19 NSaved=  19.
 NSaved=19 IEnMin=19 EnMin= -156.424956911324     IErMin=19 ErrMin= 1.47D-08
 ErrMax= 1.47D-08  0.00D+00 EMaxC= 1.00D-01 BMatC= 7.12D-14 BMatP= 9.65D-13
 IDIUse=1 WtCom= 1.00D+00 WtEn= 0.00D+00
 Coeff-Com:  0.139D-06-0.155D-07-0.189D-06 0.123D-07-0.979D-08 0.150D-05
 Coeff-Com:  0.833D-06 0.540D-05-0.563D-04-0.784D-04 0.233D-03 0.232D-03
 Coeff-Com: -0.106D-02-0.406D-02 0.998D-02 0.205D-01-0.574D-01-0.193D+00
 Coeff-Com:  0.122D+01
 Coeff:      0.139D-06-0.155D-07-0.189D-06 0.123D-07-0.979D-08 0.150D-05
 Coeff:      0.833D-06 0.540D-05-0.563D-04-0.784D-04 0.233D-03 0.232D-03
 Coeff:     -0.106D-02-0.406D-02 0.998D-02 0.205D-01-0.574D-01-0.193D+00
 Coeff:      0.122D+01
 Gap=     0.028 Goal=   None    Shift=    0.000
 Gap=     0.094 Goal=   None    Shift=    0.000
 RMSDP=1.19D-07 MaxDP=6.43D-06 DE=-1.65D-12 OVMax= 4.43D-07

 Cycle  20  Pass 1  IDiag  1:
 E= -156.424956911324     Delta-E=       -0.000000000000 Rises=F Damp=F
 DIIS: error= 4.18D-09 at cycle  20 NSaved=  20.
 NSaved=20 IEnMin=20 EnMin= -156.424956911324     IErMin=20 ErrMin= 4.18D-09
 ErrMax= 4.18D-09  0.00D+00 EMaxC= 1.00D-01 BMatC= 4.92D-15 BMatP= 7.12D-14
 IDIUse=1 WtCom= 1.00D+00 WtEn= 0.00D+00
 Coeff-Com: -0.237D-07 0.618D-08 0.481D-07-0.273D-08-0.144D-09-0.125D-07
 Coeff-Com:  0.102D-05 0.382D-06 0.106D-04-0.175D-05-0.228D-04-0.960D-04
 Coeff-Com:  0.356D-03 0.103D-02-0.392D-02-0.152D-02 0.350D-01-0.140D+00
 Coeff-Com:  0.578D-01 0.105D+01
 Coeff:     -0.237D-07 0.618D-08 0.481D-07-0.273D-08-0.144D-09-0.125D-07
 Coeff:      0.102D-05 0.382D-06 0.106D-04-0.175D-05-0.228D-04-0.960D-04
 Coeff:      0.356D-03 0.103D-02-0.392D-02-0.152D-02 0.350D-01-0.140D+00
 Coeff:      0.578D-01 0.105D+01
 Gap=     0.028 Goal=   None    Shift=    0.000
 Gap=     0.094 Goal=   None    Shift=    0.000
 RMSDP=5.11D-08 MaxDP=2.71D-06 DE=-2.84D-13 OVMax= 1.27D-07

 Cycle  21  Pass 1  IDiag  1:
 E= -156.424956911324     Delta-E=        0.000000000000 Rises=F Damp=F
 DIIS: error= 8.53D-10 at cycle  21 NSaved=  20.
 NSaved=20 IEnMin=19 EnMin= -156.424956911324     IErMin=20 ErrMin= 8.53D-10
 ErrMax= 8.53D-10  0.00D+00 EMaxC= 1.00D-01 BMatC= 2.94D-16 BMatP= 4.92D-15
 IDIUse=1 WtCom= 1.00D+00 WtEn= 0.00D+00
 Large coefficients: NSaved= 20 BigCof=    0.00 CofMax=   10.00 Det=-9.98D-16
 Inversion failed.  Reducing to 19 matrices.
 Large coefficients: NSaved= 19 BigCof=    0.00 CofMax=   10.00 Det=-1.00D-15
 Inversion failed.  Reducing to 18 matrices.
 Large coefficients: NSaved= 18 BigCof=    0.00 CofMax=   10.00 Det=-1.08D-15
 Inversion failed.  Reducing to 17 matrices.
 Large coefficients: NSaved= 17 BigCof=    0.00 CofMax=   10.00 Det=-1.08D-15
 Inversion failed.  Reducing to 16 matrices.
 Large coefficients: NSaved= 16 BigCof=    0.00 CofMax=   10.00 Det=-1.11D-15
 Inversion failed.  Reducing to 15 matrices.
 Coeff-Com: -0.161D-06-0.471D-06 0.241D-05 0.952D-05-0.183D-04-0.121D-04
 Coeff-Com:  0.689D-04 0.195D-03-0.374D-03-0.110D-02 0.103D-02 0.258D-01
 Coeff-Com: -0.103D+00-0.867D-01 0.116D+01
 Coeff:     -0.161D-06-0.471D-06 0.241D-05 0.952D-05-0.183D-04-0.121D-04
 Coeff:      0.689D-04 0.195D-03-0.374D-03-0.110D-02 0.103D-02 0.258D-01
 Coeff:     -0.103D+00-0.867D-01 0.116D+01
 Gap=     0.028 Goal=   None    Shift=    0.000
 Gap=     0.094 Goal=   None    Shift=    0.000
 RMSDP=5.21D-09 MaxDP=3.32D-07 DE= 2.84D-13 OVMax= 5.13D-08

 SCF Done:  E(UB3LYP) =  -156.424956911     A.U. after   21 cycles
            NFock= 21  Conv=0.52D-08     -V/T= 2.0056
 <Sx>= 0.0000 <Sy>= 0.0000 <Sz>= 2.0000 <S**2>= 6.0257 S= 2.0051
 <L.S>= 0.000000000000E+00
 KE= 1.555530000800D+02 PE=-5.986631112005D+02 EE= 1.707115226317D+02
 Annihilation of the first spin contaminant:
 S**2 before annihilation     6.0257,   after     6.0002
 Leave Link  502 at Wed Jun 19 17:50:20 2019, MaxMem=  4294967296 cpu:              83.8 elap:               7.8
 (Enter /opt/gaussian/gdv-20170407-i10+/gdv/l601.exe)
 Copying SCF densities to generalized density rwf, IOpCl= 1 IROHF=0.

 **********************************************************************

            Population analysis using the SCF Density.

 **********************************************************************

 Orbital symmetries:
 Alpha Orbitals:
       Occupied  (B) (A) (A) (B) (A) (A) (A) (A) (B) (A) (B) (A)
                 (B) (A) (B) (B) (A) (A) (B)
       Virtual   (A) (B) (B) (A) (A) (B) (B) (A) (B) (A) (A) (B)
                 (A) (A) (B) (A) (B) (A) (A) (B) (B) (A) (B) (B)
                 (B) (A) (B) (A) (A) (B) (B) (A) (B) (A) (B) (B)
                 (A) (A) (B) (B) (A) (A) (A) (B) (A) (B) (A) (B)
                 (B) (A) (B) (A) (A) (B) (B) (B) (A) (A) (B) (A)
                 (B) (B) (A) (B) (A) (B) (A) (A) (B) (B) (A) (A)
                 (A) (B) (B) (A) (A) (B) (B) (A) (A) (A) (B) (B)
                 (A) (B) (B) (A) (B) (A) (B) (A) (A) (A) (B) (B)
                 (A) (B) (A) (B) (B) (A) (A) (A) (B) (A) (B) (B)
                 (A) (B) (A) (B) (A) (A) (B) (B) (A) (B) (A) (B)
                 (A) (B) (A) (A) (B) (B) (A) (B) (A) (A) (B) (A)
                 (A) (B) (A)
 Beta  Orbitals:
       Occupied  (B) (A) (A) (B) (A) (A) (A) (A) (B) (A) (B) (A)
                 (B) (A) (B)
       Virtual   (B) (A) (A) (A) (B) (B) (A) (B) (A) (B) (B) (A)
                 (B) (A) (B) (A) (A) (A) (B) (A) (B) (A) (A) (B)
                 (B) (A) (B) (B) (B) (A) (B) (A) (A) (B) (B) (B)
                 (A) (A) (B) (A) (A) (B) (B) (B) (A) (A) (A) (B)
                 (A) (B) (A) (B) (A) (B) (B) (A) (B) (A) (B) (A)
                 (B) (A) (B) (B) (A) (B) (A) (B) (A) (A) (B) (A)
                 (B) (B) (A) (A) (A) (B) (B) (A) (A) (B) (B) (A)
                 (A) (B) (A) (B) (A) (B) (B) (A) (B) (A) (B) (A)
                 (A) (A) (B) (B) (A) (B) (A) (B) (B) (A) (A) (A)
                 (B) (A) (B) (B) (A) (B) (A) (B) (A) (A) (B) (B)
                 (A) (B) (A) (B) (A) (B) (A) (A) (B) (B) (A) (B)
                 (A) (A) (B) (A) (A) (B) (A)
 The electronic state is 5-A.
 Alpha  occ. eigenvalues --   -6.59008  -6.59008  -6.56791  -6.56691  -6.56686
 Alpha  occ. eigenvalues --   -6.55272  -1.85409  -0.50891  -0.39953  -0.30587
 Alpha  occ. eigenvalues --   -0.18867  -0.16328  -0.14031  -0.12620  -0.09589
 Alpha  occ. eigenvalues --   -0.08484  -0.05047  -0.02722   0.02561
 Alpha virt. eigenvalues --    0.05369   0.06848   0.07058   0.07765   0.08246
 Alpha virt. eigenvalues --    0.11358   0.11731   0.11830   0.12278   0.13558
 Alpha virt. eigenvalues --    0.14421   0.14569   0.14785   0.15011   0.15950
 Alpha virt. eigenvalues --    0.16060   0.17280   0.17999   0.18316   0.18824
 Alpha virt. eigenvalues --    0.19794   0.20458   0.20494   0.21747   0.22021
 Alpha virt. eigenvalues --    0.22104   0.22374   0.22692   0.23921   0.24137
 Alpha virt. eigenvalues --    0.24799   0.25494   0.26004   0.26551   0.27200
 Alpha virt. eigenvalues --    0.28147   0.28169   0.28252   0.30067   0.31281
 Alpha virt. eigenvalues --    0.33487   0.36561   0.39717   0.42480   0.44122
 Alpha virt. eigenvalues --    0.44564   0.45084   0.50188   0.51163   0.51234
 Alpha virt. eigenvalues --    0.52210   0.53338   0.54330   0.55100   0.56036
 Alpha virt. eigenvalues --    0.56979   0.57285   0.58332   0.60846   0.61487
 Alpha virt. eigenvalues --    0.62117   0.63346   0.65419   0.65969   0.66388
 Alpha virt. eigenvalues --    0.67062   0.67563   0.70263   0.71652   0.72239
 Alpha virt. eigenvalues --    0.73901   0.75304   0.77473   0.80193   0.81129
 Alpha virt. eigenvalues --    0.82373   0.83785   0.88403   0.89240   0.93450
 Alpha virt. eigenvalues --    0.95017   1.00718   1.01228   1.09429   1.12227
 Alpha virt. eigenvalues --    1.18764   1.23626   1.29768   1.31743   1.33764
 Alpha virt. eigenvalues --    1.36580   1.37015   1.40358   1.44919   1.46622
 Alpha virt. eigenvalues --    1.47041   1.51399   1.54308   1.54857   1.55613
 Alpha virt. eigenvalues --    1.61759   1.64396   1.66949   1.73177   1.73679
 Alpha virt. eigenvalues --    1.77645   1.85634   1.94025   1.94149   1.99650
 Alpha virt. eigenvalues --    2.00439   2.08547   2.11655   2.12829   2.15467
 Alpha virt. eigenvalues --    2.20106   2.28599   2.30296   2.33377   2.44576
 Alpha virt. eigenvalues --    2.44987   2.50988   2.56446   2.59552   2.66975
 Alpha virt. eigenvalues --    2.76141   2.82933   3.01258   3.99352  14.06424
 Alpha virt. eigenvalues --   14.73585  14.93416  15.11103  15.19240  15.19507
  Beta  occ. eigenvalues --   -6.57697  -6.57697  -6.56743  -6.56352  -6.56350
  Beta  occ. eigenvalues --   -6.54802  -1.85304  -0.49011  -0.37158  -0.27274
  Beta  occ. eigenvalues --   -0.15653  -0.14491  -0.10517  -0.08535  -0.07189
  Beta virt. eigenvalues --    0.02229   0.04085   0.04990   0.06649   0.07031
  Beta virt. eigenvalues --    0.07214   0.08208   0.09503   0.09590   0.12179
  Beta virt. eigenvalues --    0.13237   0.13285   0.13736   0.14092   0.14816
  Beta virt. eigenvalues --    0.14955   0.15343   0.15881   0.16308   0.16675
  Beta virt. eigenvalues --    0.18363   0.18556   0.19081   0.19295   0.20400
  Beta virt. eigenvalues --    0.21006   0.21487   0.22084   0.22241   0.22816
  Beta virt. eigenvalues --    0.23858   0.23980   0.24429   0.24969   0.25653
  Beta virt. eigenvalues --    0.26552   0.26727   0.27281   0.28430   0.28544
  Beta virt. eigenvalues --    0.28872   0.29195   0.31165   0.33549   0.35486
  Beta virt. eigenvalues --    0.37680   0.40449   0.43519   0.45849   0.46394
  Beta virt. eigenvalues --    0.47106   0.51244   0.52495   0.52638   0.53784
  Beta virt. eigenvalues --    0.54327   0.56000   0.56388   0.57567   0.58541
  Beta virt. eigenvalues --    0.59615   0.60108   0.61677   0.62896   0.63277
  Beta virt. eigenvalues --    0.65362   0.66859   0.67180   0.68004   0.68367
  Beta virt. eigenvalues --    0.68589   0.72786   0.73113   0.75312   0.75709
  Beta virt. eigenvalues --    0.77039   0.79973   0.81437   0.83238   0.84146
  Beta virt. eigenvalues --    0.85507   0.90081   0.90587   0.95318   0.96927
  Beta virt. eigenvalues --    1.02819   1.03118   1.13335   1.15048   1.21365
  Beta virt. eigenvalues --    1.25806   1.32950   1.35076   1.36455   1.39161
  Beta virt. eigenvalues --    1.39996   1.42049   1.48816   1.48933   1.50123
  Beta virt. eigenvalues --    1.53743   1.56787   1.57592   1.58515   1.64944
  Beta virt. eigenvalues --    1.65621   1.68590   1.75315   1.75803   1.80293
  Beta virt. eigenvalues --    1.86762   1.95360   1.95876   2.01587   2.01758
  Beta virt. eigenvalues --    2.11170   2.14433   2.14735   2.15978   2.22508
  Beta virt. eigenvalues --    2.29942   2.31929   2.35788   2.46624   2.47628
  Beta virt. eigenvalues --    2.53142   2.57675   2.60775   2.68692   2.77039
  Beta virt. eigenvalues --    2.84192   3.03070   3.99613  14.07225  14.74987
  Beta virt. eigenvalues --   14.93633  15.12244  15.20039  15.20307
          Condensed to atoms (all electrons):
               1          2          3          4          5          6
     1  Li   3.109548  -0.117984   0.637861   0.637861  -0.131364  -0.131364
     2  B   -0.117984   5.823402  -0.342675  -0.342675  -0.195201  -0.195201
     3  B    0.637861  -0.342675   6.524913  -1.043665   1.463380  -1.190043
     4  B    0.637861  -0.342675  -1.043665   6.524913  -1.190043   1.463380
     5  B   -0.131364  -0.195201   1.463380  -1.190043   5.399469  -1.106270
     6  B   -0.131364  -0.195201  -1.190043   1.463380  -1.106270   5.399469
     7  B   -0.650073  -0.331749  -0.353606  -0.353606   0.752126   0.752126
               7
     1  Li  -0.650073
     2  B   -0.331749
     3  B   -0.353606
     4  B   -0.353606
     5  B    0.752126
     6  B    0.752126
     7  B    5.155860
          Atomic-Atomic Spin Densities.
               1          2          3          4          5          6
     1  Li   0.282806  -0.343148   0.241745   0.241745   0.011930   0.011930
     2  B   -0.343148   1.596205  -0.570346  -0.570346  -0.281425  -0.281425
     3  B    0.241745  -0.570346   2.415228  -0.682199   0.797514  -0.813915
     4  B    0.241745  -0.570346  -0.682199   2.415228  -0.813915   0.797514
     5  B    0.011930  -0.281425   0.797514  -0.813915   1.455952  -0.912933
     6  B    0.011930  -0.281425  -0.813915   0.797514  -0.912933   1.455952
     7  B    0.002753   0.054605  -0.090207  -0.090207   0.115082   0.115082
               7
     1  Li   0.002753
     2  B    0.054605
     3  B   -0.090207
     4  B   -0.090207
     5  B    0.115082
     6  B    0.115082
     7  B    0.498958
 Mulliken charges and spin densities:
               1          2
     1  Li  -0.354485   0.449762
     2  B    0.702083  -0.395879
     3  B   -0.696164   1.297821
     4  B   -0.696164   1.297821
     5  B    0.007904   0.372205
     6  B    0.007904   0.372205
     7  B    0.028923   0.606065
 Sum of Mulliken charges =  -1.00000   4.00000
 Mulliken charges and spin densities with hydrogens summed into heavy atoms:
               1          2
     1  Li  -0.354485   0.449762
     2  B    0.702083  -0.395879
     3  B   -0.696164   1.297821
     4  B   -0.696164   1.297821
     5  B    0.007904   0.372205
     6  B    0.007904   0.372205
     7  B    0.028923   0.606065
 Electronic spatial extent (au):  <R**2>=            427.1091
 Charge=             -1.0000 electrons
 Dipole moment (field-independent basis, Debye):
    X=              0.0000    Y=              0.0000    Z=             -3.2915  Tot=              3.2915
 Quadrupole moment (field-independent basis, Debye-Ang):
   XX=            -51.8982   YY=            -66.3170   ZZ=            -48.0110
   XY=              2.6889   XZ=              0.0000   YZ=             -0.0000
 Traceless Quadrupole moment (field-independent basis, Debye-Ang):
   XX=              3.5105   YY=            -10.9082   ZZ=              7.3977
   XY=              2.6889   XZ=              0.0000   YZ=             -0.0000
 Octapole moment (field-independent basis, Debye-Ang**2):
  XXX=             -0.0000  YYY=              0.0000  ZZZ=            -22.8367  XYY=              0.0000
  XXY=              0.0000  XXZ=             13.1461  XZZ=              0.0000  YZZ=             -0.0000
  YYZ=             14.4121  XYZ=             -4.1321
 Hexadecapole moment (field-independent basis, Debye-Ang**3):
 XXXX=           -212.7091 YYYY=           -640.2958 ZZZZ=           -453.6927 XXXY=             38.8151
 XXXZ=              0.0000 YYYX=             46.0107 YYYZ=              0.0000 ZZZX=              0.0000
 ZZZY=             -0.0000 XXYY=           -136.1251 XXZZ=           -145.0930 YYZZ=           -208.2652
 XXYZ=             -0.0000 YYXZ=             -0.0000 ZZXY=             22.6630
 N-N= 1.159736315775D+02 E-N=-5.986631111747D+02  KE= 1.555530000800D+02
 Symmetry A    KE= 1.034461012962D+02
 Symmetry B    KE= 5.210689878380D+01
 Symmetry A    SP= 2.000000000000D+00
 Symmetry B    SP= 2.000000000000D+00
                          Isotropic Fermi Contact Couplings
        Atom                 a.u.       MegaHertz       Gauss      10(-4) cm-1
     1  Li(7)             -0.00106      -0.46069      -0.16439      -0.15367
     2  B(11)              0.01464       5.25069       1.87358       1.75144
     3  B(11)              0.29164     104.58019      37.31681      34.88420
     4  B(11)              0.29164     104.58019      37.31681      34.88420
     5  B(11)              0.02812      10.08378       3.59814       3.36359
     6  B(11)              0.02812      10.08378       3.59814       3.36359
     7  B(11)              0.00422       1.51211       0.53956       0.50439
 --------------------------------------------------------
       Center         ----  Spin Dipole Couplings  ----
                      3XX-RR        3YY-RR        3ZZ-RR
 --------------------------------------------------------
     1   Atom       -0.025262      0.033900     -0.008638
     2   Atom       -0.114111      0.046011      0.068100
     3   Atom        0.033638     -0.145121      0.111482
     4   Atom        0.033638     -0.145121      0.111482
     5   Atom        0.099594     -0.105023      0.005429
     6   Atom        0.099594     -0.105023      0.005429
     7   Atom        0.091540     -0.055660     -0.035880
 --------------------------------------------------------
                        XY            XZ            YZ
 --------------------------------------------------------
     1   Atom       -0.006447      0.000000      0.000000
     2   Atom       -0.005245      0.000000      0.000000
     3   Atom        0.046243      0.038518     -0.165300
     4   Atom        0.046243     -0.038518      0.165300
     5   Atom        0.032011     -0.009549     -0.039705
     6   Atom        0.032011      0.009549      0.039705
     7   Atom        0.098287      0.000000      0.000000
 --------------------------------------------------------


 ---------------------------------------------------------------------------------
              Anisotropic Spin Dipole Couplings in Principal Axis System
 ---------------------------------------------------------------------------------

       Atom             a.u.   MegaHertz   Gauss  10(-4) cm-1        Axes

              Baa    -0.0260    -5.383    -1.921    -1.795  0.9943  0.1071 -0.0000
     1 Li(7)  Bbb    -0.0086    -1.791    -0.639    -0.598  0.0000 -0.0000  1.0000
              Bcc     0.0346     7.174     2.560     2.393 -0.1071  0.9943  0.0000
 
              Baa    -0.1143   -19.567    -6.982    -6.527  0.9995  0.0327 -0.0000
     2 B(11)  Bbb     0.0462     7.907     2.821     2.638 -0.0327  0.9995 -0.0000
              Bcc     0.0681    11.660     4.160     3.889 -0.0000  0.0000  1.0000
 
              Baa    -0.2386   -40.860   -14.580   -13.629 -0.2103  0.8749  0.4362
     3 B(11)  Bbb     0.0449     7.684     2.742     2.563  0.9732  0.2300  0.0079
              Bcc     0.1938    33.176    11.838    11.066  0.0934 -0.4262  0.8998
 
              Baa    -0.2386   -40.860   -14.580   -13.629 -0.2103  0.8749 -0.4362
     4 B(11)  Bbb     0.0449     7.684     2.742     2.563  0.9732  0.2300 -0.0079
              Bcc     0.1938    33.176    11.838    11.066 -0.0934  0.4262  0.8998
 
              Baa    -0.1213   -20.767    -7.410    -6.927 -0.1251  0.9494  0.2881
     5 B(11)  Bbb     0.0143     2.448     0.873     0.816  0.2031 -0.2597  0.9441
              Bcc     0.1070    18.319     6.537     6.111  0.9711  0.1767 -0.1604
 
              Baa    -0.1213   -20.767    -7.410    -6.927 -0.1251  0.9494 -0.2881
     6 B(11)  Bbb     0.0143     2.448     0.873     0.816 -0.2031  0.2597  0.9441
              Bcc     0.1070    18.319     6.537     6.111  0.9711  0.1767  0.1604
 
              Baa    -0.1048   -17.952    -6.406    -5.988 -0.4476  0.8943 -0.0000
     7 B(11)  Bbb    -0.0359    -6.143    -2.192    -2.049 -0.0000  0.0000  1.0000
              Bcc     0.1407    24.095     8.598     8.037  0.8943  0.4476  0.0000
 

 ---------------------------------------------------------------------------------

 No NMR shielding tensors so no spin-rotation constants.
 Leave Link  601 at Wed Jun 19 17:50:20 2019, MaxMem=  4294967296 cpu:               3.2 elap:               0.3
 (Enter /opt/gaussian/gdv-20170407-i10+/gdv/l701.exe)
 ... and contract with generalized density number  0.
 Compute integral first derivatives.
 Leave Link  701 at Wed Jun 19 17:50:21 2019, MaxMem=  4294967296 cpu:               4.1 elap:               0.4
 (Enter /opt/gaussian/gdv-20170407-i10+/gdv/l702.exe)
 L702 exits ... SP integral derivatives will be done elsewhere.
 Leave Link  702 at Wed Jun 19 17:50:21 2019, MaxMem=  4294967296 cpu:               0.2 elap:               0.0
 (Enter /opt/gaussian/gdv-20170407-i10+/gdv/l703.exe)
 Integral derivatives from FoFJK, PRISM(SPDF).
 Compute integral first derivatives, UseDBF=F ICtDFT=           0.
 Calling FoFJK, ICntrl=      2127 FMM=F ISym2X=1 I1Cent= 0 IOpClX= 1 NMat=1 NMatS=1 NMatT=0.
 FoFJK:  IHMeth= 1 ICntrl=    2127 DoSepK=F KAlg= 0 I1Cent=           0 FoldK=F
 IRaf=         0 NMat=       1 IRICut=       1 DoRegI=T DoRafI=F ISym2E= 1 IDoP0=0 IntGTp=1.
 FoFCou: FMM=F IPFlag=           0 FMFlag=      100000 FMFlg1=         800
         NFxFlg=           0 DoJE=F BraDBF=F KetDBF=F FulRan=T
         wScrn=  0.000000 ICntrl=      2127 IOpCl=  1 I1Cent=           0 NGrid=           0
         NMat0=    1 NMatS0=      1 NMatT0=    0 NMatD0=    1 NMtDS0=    0 NMtDT0=    0
 Petite list used in FoFCou.
 Leave Link  703 at Wed Jun 19 17:50:22 2019, MaxMem=  4294967296 cpu:              11.8 elap:               1.0
 (Enter /opt/gaussian/gdv-20170407-i10+/gdv/l716.exe)
 Dipole        = 1.33125107D-15 5.35945094D-15-1.29498068D+00
 ***** Axes restored to original set *****
 -------------------------------------------------------------------
 Center     Atomic                   Forces (Hartrees/Bohr)
 Number     Number              X              Y              Z
 -------------------------------------------------------------------
      1        3          -0.000000000    0.000000000   -0.000811703
      2        5          -0.000000000    0.000000000   -0.010783126
      3        5          -0.015699493   -0.006405157   -0.008724091
      4        5           0.015699493    0.006405157   -0.008724091
      5        5           0.019894683   -0.002850405    0.012190484
      6        5          -0.019894683    0.002850405    0.012190484
      7        5           0.000000000   -0.000000000    0.004662044
 -------------------------------------------------------------------
 Cartesian Forces:  Max     0.019894683 RMS     0.009687870
 Leave Link  716 at Wed Jun 19 17:50:22 2019, MaxMem=  4294967296 cpu:               0.3 elap:               0.0
 (Enter /opt/gaussian/gdv-20170407-i10+/gdv/l103.exe)

 GradGradGradGradGradGradGradGradGradGradGradGradGradGradGradGradGradGrad
 Berny optimization.
 FormGI is forming the generalized inverse of G from B-inverse, IUseBI=4.
 Internal  Forces:  Max     0.010110507 RMS     0.004334608
 Search for a local minimum.
 Step number   1 out of a maximum of   55
 All quantities printed in internal units (Hartrees-Bohrs-Radians)
 RMS Force = .43346D-02 SwitMx=.10000D-02 MixMth= 1
 Mixed Optimization -- RFO/linear search
 Second derivative matrix not updated -- first step.
 ITU=  0
     Eigenvalues ---    0.00560   0.01111   0.02008   0.02225   0.07004
     Eigenvalues ---    0.07188   0.13952   0.16458   0.18161   0.19737
     Eigenvalues ---    0.20283   0.21494   0.23492   0.24320   0.25689
 RFO step:  Lambda=-1.58790840D-02 EMin= 5.59610963D-03
 Linear search not attempted -- first point.
 Iteration  1 RMS(Cart)=  0.04899234 RMS(Int)=  0.01334187
 Iteration  2 RMS(Cart)=  0.00694660 RMS(Int)=  0.00662580
 Iteration  3 RMS(Cart)=  0.00011777 RMS(Int)=  0.00662273
 Iteration  4 RMS(Cart)=  0.00000128 RMS(Int)=  0.00662273
 Iteration  5 RMS(Cart)=  0.00000001 RMS(Int)=  0.00662273
 ITry= 1 IFail=0 DXMaxC= 1.87D-01 DCOld= 1.00D+10 DXMaxT= 3.00D-01 DXLimC= 3.00D+00 Rises=F
 ClnCor:  largest displacement from symmetrization is 7.22D-10 for atom     4.
 Variable       Old X    -DE/DX   Delta X   Delta X   Delta X     New X
                                 (Linear)    (Quad)   (Total)
    R1        3.92345   0.00552   0.00000   0.00523   0.00804   3.93149
    R2        4.33507  -0.00351   0.00000  -0.03143  -0.03158   4.30348
    R3        4.33507  -0.00351   0.00000  -0.03143  -0.03158   4.30348
    R4        3.21729  -0.00353   0.00000  -0.00473  -0.00861   3.20867
    R5        3.21729  -0.00353   0.00000  -0.00473  -0.00861   3.20867
    R6        3.28058  -0.00104   0.00000   0.03031   0.02118   3.30176
    R7        3.28058  -0.00104   0.00000   0.03031   0.02118   3.30176
    R8        3.24901   0.00694   0.00000   0.04717   0.04210   3.29110
    R9        2.95199   0.00479   0.00000   0.00425   0.01117   2.96316
   R10        2.95199   0.00479   0.00000   0.00425   0.01117   2.96316
   R11        2.98371  -0.00287   0.00000  -0.03359  -0.02495   2.95875
   R12        2.98371  -0.00287   0.00000  -0.03359  -0.02495   2.95875
    A1        1.58886  -0.00176   0.00000   0.00495   0.00241   1.59127
    A2        2.19251   0.00189   0.00000   0.02371   0.01829   2.21080
    A3        2.19251   0.00189   0.00000   0.02371   0.01829   2.21080
    A4        2.58367  -0.00403   0.00000  -0.02341  -0.02354   2.56013
    A5        2.70958   0.00286   0.00000   0.06197   0.05130   2.76088
    A6        1.84976   0.00201   0.00000   0.01171   0.01177   1.86153
    A7        2.70958   0.00286   0.00000   0.06197   0.05130   2.76088
    A8        1.84976   0.00201   0.00000   0.01171   0.01177   1.86153
    A9        1.89817  -0.00379   0.00000  -0.04742  -0.03658   1.86159
   A10        2.13294   0.00386   0.00000   0.05639   0.04555   2.17850
   A11        2.13294   0.00386   0.00000   0.05639   0.04555   2.17850
   A12        2.11013   0.00342   0.00000   0.05628   0.04321   2.15334
   A13        2.11013   0.00342   0.00000   0.05628   0.04321   2.15334
   A14        2.21134  -0.00284   0.00000   0.01398   0.00590   2.21724
   A15        3.14159   0.00000   0.00000   0.00000   0.00000   3.14159
   A16        3.14159   0.00000   0.00000  -0.00000   0.00000   3.14159
    D1       -0.00000   0.00000   0.00000   0.00000   0.00000  -0.00000
    D2       -0.31540   0.00544   0.00000   0.13008   0.12892  -0.18648
    D3       -0.31540   0.00544   0.00000   0.13008   0.12892  -0.18648
    D4        2.84546   0.00576   0.00000   0.13423   0.12674   2.97221
    D5       -2.54229  -0.00750   0.00000  -0.21009  -0.22286  -2.76516
    D6        3.14159   0.00000   0.00000  -0.00000   0.00000   3.14159
    D7       -2.54229  -0.00750   0.00000  -0.21009  -0.22286  -2.76516
    D8        2.84546   0.00576   0.00000   0.13423   0.12674   2.97221
    D9        3.14159  -0.00000   0.00000   0.00000   0.00000  -3.14159
   D10        3.14159   0.00000   0.00000   0.00000   0.00000   3.14159
   D11        3.14159   0.00000   0.00000  -0.00000   0.00000   3.14159
   D12        3.14159  -0.00000   0.00000   0.00000   0.00000   3.14159
   D13        0.66878  -0.01011   0.00000  -0.27183  -0.27126   0.39752
   D14        0.66878  -0.01011   0.00000  -0.27183  -0.27126   0.39752
   D15       -0.36267   0.00647   0.00000   0.15085   0.14949  -0.21318
   D16        0.00000  -0.00000   0.00000  -0.00000   0.00000   0.00000
   D17       -0.36267   0.00647   0.00000   0.15085   0.14949  -0.21318
         Item               Value     Threshold  Converged?
 Maximum Force            0.010111     0.000450     NO 
 RMS     Force            0.004335     0.000300     NO 
 Maximum Displacement     0.187056     0.001800     NO 
 RMS     Displacement     0.054924     0.001200     NO 
 Predicted change in Energy=-1.213243D-02
 Lowest energy point so far.  Saving SCF results.
 GradGradGradGradGradGradGradGradGradGradGradGradGradGradGradGradGradGrad

 Leave Link  103 at Wed Jun 19 17:50:22 2019, MaxMem=  4294967296 cpu:               0.2 elap:               0.0
 (Enter /opt/gaussian/gdv-20170407-i10+/gdv/l202.exe)
                          Input orientation:                          
 ---------------------------------------------------------------------
 Center     Atomic      Atomic             Coordinates (Angstroms)
 Number     Number       Type             X           Y           Z
 ---------------------------------------------------------------------
      1          3           0       -0.000000   -0.000000   -2.323244
      2          5           0       -0.000000   -0.000000   -0.242790
      3          5           0       -0.085611    1.624446   -0.729518
      4          5           0        0.085611   -1.624446   -0.729518
      5          5           0       -0.311014    1.366490    0.800641
      6          5           0        0.311014   -1.366490    0.800641
      7          5           0        0.000000    0.000000    1.498787
 ---------------------------------------------------------------------
                    Distance matrix (angstroms):
                    1          2          3          4          5
     1  Li   0.000000
     2  B    2.080454   0.000000
     3  B    2.277305   1.697957   0.000000
     4  B    2.277305   1.697957   3.253401   0.000000
     5  B    3.423841   1.747219   1.568035   3.382957   0.000000
     6  B    3.423841   1.747219   3.382957   1.568035   2.802874
     7  B    3.822031   1.741577   2.758895   2.758895   1.565705
                    6          7
     6  B    0.000000
     7  B    1.565705   0.000000
 Stoichiometry    B6Li(1-,5)
 Framework group  C2[C2(LiBB),X(B4)]
 Deg. of freedom     7
 Full point group                 C2      NOp   2
 RotChk:  IX=0 Diff= 7.45D-02
 Largest Abelian subgroup         C2      NOp   2
 Largest concise Abelian subgroup C2      NOp   2
                         Standard orientation:                         
 ---------------------------------------------------------------------
 Center     Atomic      Atomic             Coordinates (Angstroms)
 Number     Number       Type             X           Y           Z
 ---------------------------------------------------------------------
      1          3           0        0.000000    0.000000   -2.323895
      2          5           0        0.000000    0.000000   -0.243441
      3          5           0       -0.000000    1.626701   -0.730169
      4          5           0       -0.000000   -1.626701   -0.730169
      5          5           0       -0.238667    1.380965    0.799990
      6          5           0        0.238667   -1.380965    0.799990
      7          5           0       -0.000000   -0.000000    1.498136
 ---------------------------------------------------------------------
 Rotational constants (GHZ):           5.6281380           4.9786246           2.6619255
 Leave Link  202 at Wed Jun 19 17:50:22 2019, MaxMem=  4294967296 cpu:               0.1 elap:               0.0
 (Enter /opt/gaussian/gdv-20170407-i10+/gdv/l301.exe)
 Standard basis: 6-311+G(d) (5D, 7F)
 Ernie: Thresh=  0.10000D-02 Tol=  0.10000D-05 Strict=F.
 There are    85 symmetry adapted cartesian basis functions of A   symmetry.
 There are    76 symmetry adapted cartesian basis functions of B   symmetry.
 There are    80 symmetry adapted basis functions of A   symmetry.
 There are    74 symmetry adapted basis functions of B   symmetry.
   154 basis functions,   252 primitive gaussians,   161 cartesian basis functions
    19 alpha electrons       15 beta electrons
       nuclear repulsion energy       115.7931672983 Hartrees.
 IExCor=  402 DFT=T Ex+Corr=B3LYP ExCW=0 ScaHFX=  0.200000
 ScaDFX=  0.800000  0.720000  1.000000  0.810000 ScalE2=  1.000000  1.000000
 IRadAn=      5 IRanWt=     -1 IRanGd=            0 ICorTp=0 IEmpDi=  4
 NAtoms=    7 NActive=    7 NUniq=    5 SFac= 1.96D+00 NAtFMM=   60 NAOKFM=F Big=F
 Integral buffers will be    131072 words long.
 Raffenetti 2 integral format.
 Two-electron integral symmetry is turned on.
 Leave Link  301 at Wed Jun 19 17:50:22 2019, MaxMem=  4294967296 cpu:               0.6 elap:               0.1
 (Enter /opt/gaussian/gdv-20170407-i10+/gdv/l302.exe)
 NPDir=0 NMtPBC=     1 NCelOv=     1 NCel=       1 NClECP=     1 NCelD=      1
         NCelK=      1 NCelE2=     1 NClLst=     1 CellRange=     0.0.
 One-electron integrals computed using PRISM.
 One-electron integral symmetry used in STVInt
 NBasis=   154 RedAO= T EigKep=  4.07D-06  NBF=    80    74
 NBsUse=   154 1.00D-06 EigRej= -1.00D+00 NBFU=    80    74
 Precomputing XC quadrature grid using
 IXCGrd= 4 IRadAn=           5 IRanWt=          -1 IRanGd=           0 AccXCQ= 1.00D-12.
 Generated NRdTot=       0 NPtTot=           0 NUsed=           0 NTot=          32
 NSgBfM=   161   161   161   161   161 MxSgAt=     7 MxSgA2=     7.
 Leave Link  302 at Wed Jun 19 17:50:22 2019, MaxMem=  4294967296 cpu:               2.0 elap:               0.2
 (Enter /opt/gaussian/gdv-20170407-i10+/gdv/l303.exe)
 DipDrv:  MaxL=1.
 Leave Link  303 at Wed Jun 19 17:50:22 2019, MaxMem=  4294967296 cpu:               0.3 elap:               0.0
 (Enter /opt/gaussian/gdv-20170407-i10+/gdv/l401.exe)
 Initial guess from the checkpoint file:  "4-1-5-oso.chk"
 B after Tr=    -0.000000    0.000000    0.000000
         Rot=    0.999653    0.000000   -0.000000    0.026343 Ang=   3.02 deg.
 Guess basis will be translated and rotated to current coordinates.
 JPrj=2 DoOrth=T DoCkMO=T.
 Initial guess orbital symmetries:
 Alpha Orbitals:
       Occupied  (B) (A) (A) (B) (A) (A) (A) (A) (B) (A) (B) (A)
                 (B) (A) (B) (B) (A) (A) (B)
       Virtual   (A) (B) (B) (A) (A) (B) (B) (A) (B) (A) (A) (B)
                 (A) (A) (B) (A) (B) (A) (A) (B) (B) (A) (B) (B)
                 (B) (A) (B) (A) (A) (B) (B) (A) (B) (A) (B) (B)
                 (A) (A) (B) (B) (A) (A) (A) (B) (A) (B) (A) (B)
                 (B) (A) (B) (A) (A) (B) (B) (B) (A) (A) (B) (A)
                 (B) (B) (A) (B) (A) (B) (A) (A) (B) (B) (A) (A)
                 (A) (B) (B) (A) (A) (B) (B) (A) (A) (A) (B) (B)
                 (A) (B) (B) (A) (B) (A) (B) (A) (A) (A) (B) (B)
                 (A) (B) (A) (B) (B) (A) (A) (A) (B) (A) (B) (B)
                 (A) (B) (A) (B) (A) (A) (B) (B) (A) (B) (A) (B)
                 (A) (B) (A) (A) (B) (B) (A) (B) (A) (A) (B) (A)
                 (A) (B) (A)
 Beta  Orbitals:
       Occupied  (B) (A) (A) (B) (A) (A) (A) (A) (B) (A) (B) (A)
                 (B) (A) (B)
       Virtual   (B) (A) (A) (A) (B) (B) (A) (B) (A) (B) (B) (A)
                 (B) (A) (B) (A) (A) (A) (B) (A) (B) (A) (A) (B)
                 (B) (A) (B) (B) (B) (A) (B) (A) (A) (B) (B) (B)
                 (A) (A) (B) (A) (A) (B) (B) (B) (A) (A) (A) (B)
                 (A) (B) (A) (B) (A) (B) (B) (A) (B) (A) (B) (A)
                 (B) (A) (B) (B) (A) (B) (A) (B) (A) (A) (B) (A)
                 (B) (B) (A) (A) (A) (B) (B) (A) (A) (B) (B) (A)
                 (A) (B) (A) (B) (A) (B) (B) (A) (B) (A) (B) (A)
                 (A) (A) (B) (B) (A) (B) (A) (B) (B) (A) (A) (A)
                 (B) (A) (B) (B) (A) (B) (A) (B) (A) (A) (B) (B)
                 (A) (B) (A) (B) (A) (B) (A) (A) (B) (B) (A) (B)
                 (A) (A) (B) (A) (A) (B) (A)
 The electronic state of the initial guess is 5-A.
 Initial guess <Sx>= 0.0000 <Sy>= 0.0000 <Sz>= 2.0000 <S**2>= 6.0263 S= 2.0053
 Generating alternative initial guess.
 ExpMin= 7.40D-03 ExpMax= 2.86D+03 ExpMxC= 4.28D+02 IAcc=3 IRadAn=         5 AccDes= 0.00D+00
 Harris functional with IExCor=  402 and IRadAn=       5 diagonalized for initial guess.
 HarFok:  IExCor=  402 AccDes= 0.00D+00 IRadAn=         5 IDoV= 1 UseB2=F ITyADJ=14
 ICtDFT=  3500011 ScaDFX=  1.000000  1.000000  1.000000  1.000000
 FoFCou: FMM=F IPFlag=           0 FMFlag=      100000 FMFlg1=           0
         NFxFlg=           0 DoJE=T BraDBF=F KetDBF=T FulRan=T
         wScrn=  0.000000 ICntrl=       500 IOpCl=  0 I1Cent=   200000004 NGrid=           0
         NMat0=    1 NMatS0=      1 NMatT0=    0 NMatD0=    1 NMtDS0=    0 NMtDT0=    0
 Petite list used in FoFCou.
 Harris En= -156.604293825638    
 Leave Link  401 at Wed Jun 19 17:50:23 2019, MaxMem=  4294967296 cpu:               5.6 elap:               0.5
 (Enter /opt/gaussian/gdv-20170407-i10+/gdv/l502.exe)
 Keep R1 and R2 ints in memory in symmetry-blocked form, NReq=106884543.
 FoFCou: FMM=F IPFlag=           0 FMFlag=           0 FMFlg1=           0
         NFxFlg=           0 DoJE=F BraDBF=F KetDBF=F FulRan=T
         wScrn=  0.000000 ICntrl=       600 IOpCl=  0 I1Cent=           0 NGrid=           0
         NMat0=    1 NMatS0=  11935 NMatT0=    0 NMatD0=    1 NMtDS0=    0 NMtDT0=    0
 Petite list used in FoFCou.
 UHF open shell SCF:
 Using DIIS extrapolation, IDIIS=  1040.
 NGot=  4294967296 LenX=  4223647678 LenY=  4223621316
 Requested convergence on RMS density matrix=1.00D-08 within 512 cycles.
 Requested convergence on MAX density matrix=1.00D-06.
 Requested convergence on             energy=1.00D-06.
 No special actions if energy rises.

 Cycle   1  Pass 1  IDiag  1:
 E= -156.428340947931    
 DIIS: error= 6.27D-03 at cycle   1 NSaved=   1.
 NSaved= 1 IEnMin= 1 EnMin= -156.428340947931     IErMin= 1 ErrMin= 6.27D-03
 ErrMax= 6.27D-03  0.00D+00 EMaxC= 1.00D-01 BMatC= 1.76D-02 BMatP= 1.76D-02
 IDIUse=3 WtCom= 9.37D-01 WtEn= 6.27D-02
 Coeff-Com:  0.100D+01
 Coeff-En:   0.100D+01
 Coeff:      0.100D+01
 Gap=     0.047 Goal=   None    Shift=    0.000
 Gap=     0.126 Goal=   None    Shift=    0.000
 GapD=    0.047 DampG=0.250 DampE=1.000 DampFc=0.2500 IDamp=-1.
 Damping current iteration by 2.50D-01
 RMSDP=9.00D-03 MaxDP=4.33D-01              OVMax= 5.75D-02

 Cycle   2  Pass 1  IDiag  1:
 E= -156.430232713689     Delta-E=       -0.001891765758 Rises=F Damp=T
 DIIS: error= 4.72D-03 at cycle   2 NSaved=   2.
 NSaved= 2 IEnMin= 2 EnMin= -156.430232713689     IErMin= 2 ErrMin= 4.72D-03
 ErrMax= 4.72D-03  0.00D+00 EMaxC= 1.00D-01 BMatC= 1.02D-02 BMatP= 1.76D-02
 IDIUse=3 WtCom= 9.53D-01 WtEn= 4.72D-02
 Coeff-Com: -0.303D+01 0.403D+01
 Coeff-En:   0.000D+00 0.100D+01
 Coeff:     -0.289D+01 0.389D+01
 Gap=     0.029 Goal=   None    Shift=    0.000
 Gap=     0.091 Goal=   None    Shift=    0.000
 RMSDP=8.07D-03 MaxDP=5.16D-01 DE=-1.89D-03 OVMax= 2.94D-02

 Cycle   3  Pass 1  IDiag  1:
 E= -156.435983365624     Delta-E=       -0.005750651935 Rises=F Damp=F
 DIIS: error= 2.66D-03 at cycle   3 NSaved=   3.
 NSaved= 3 IEnMin= 3 EnMin= -156.435983365624     IErMin= 3 ErrMin= 2.66D-03
 ErrMax= 2.66D-03  0.00D+00 EMaxC= 1.00D-01 BMatC= 1.69D-03 BMatP= 1.02D-02
 IDIUse=3 WtCom= 9.73D-01 WtEn= 2.66D-02
 Coeff-Com: -0.201D+01 0.264D+01 0.375D+00
 Coeff-En:   0.000D+00 0.000D+00 0.100D+01
 Coeff:     -0.196D+01 0.257D+01 0.392D+00
 Gap=     0.032 Goal=   None    Shift=    0.000
 Gap=     0.094 Goal=   None    Shift=    0.000
 RMSDP=4.23D-03 MaxDP=2.20D-01 DE=-5.75D-03 OVMax= 2.16D-02

 Cycle   4  Pass 1  IDiag  1:
 E= -156.436633757737     Delta-E=       -0.000650392113 Rises=F Damp=F
 DIIS: error= 8.51D-04 at cycle   4 NSaved=   4.
 NSaved= 4 IEnMin= 4 EnMin= -156.436633757737     IErMin= 4 ErrMin= 8.51D-04
 ErrMax= 8.51D-04  0.00D+00 EMaxC= 1.00D-01 BMatC= 1.69D-04 BMatP= 1.69D-03
 IDIUse=3 WtCom= 9.91D-01 WtEn= 8.51D-03
 Coeff-Com: -0.810D+00 0.105D+01 0.254D+00 0.501D+00
 Coeff-En:   0.000D+00 0.000D+00 0.598D-01 0.940D+00
 Coeff:     -0.803D+00 0.105D+01 0.253D+00 0.505D+00
 Gap=     0.033 Goal=   None    Shift=    0.000
 Gap=     0.093 Goal=   None    Shift=    0.000
 RMSDP=1.16D-03 MaxDP=6.75D-02 DE=-6.50D-04 OVMax= 5.27D-03

 Cycle   5  Pass 1  IDiag  1:
 E= -156.436698906988     Delta-E=       -0.000065149251 Rises=F Damp=F
 DIIS: error= 2.79D-04 at cycle   5 NSaved=   5.
 NSaved= 5 IEnMin= 5 EnMin= -156.436698906988     IErMin= 5 ErrMin= 2.79D-04
 ErrMax= 2.79D-04  0.00D+00 EMaxC= 1.00D-01 BMatC= 2.14D-05 BMatP= 1.69D-04
 IDIUse=3 WtCom= 9.97D-01 WtEn= 2.79D-03
 Coeff-Com:  0.980D-01-0.133D+00 0.444D-01 0.292D+00 0.698D+00
 Coeff-En:   0.000D+00 0.000D+00 0.000D+00 0.220D-01 0.978D+00
 Coeff:      0.977D-01-0.133D+00 0.443D-01 0.292D+00 0.699D+00
 Gap=     0.032 Goal=   None    Shift=    0.000
 Gap=     0.093 Goal=   None    Shift=    0.000
 RMSDP=5.92D-04 MaxDP=3.87D-02 DE=-6.51D-05 OVMax= 2.55D-03

 Cycle   6  Pass 1  IDiag  1:
 E= -156.436709602490     Delta-E=       -0.000010695502 Rises=F Damp=F
 DIIS: error= 1.01D-04 at cycle   6 NSaved=   6.
 NSaved= 6 IEnMin= 6 EnMin= -156.436709602490     IErMin= 6 ErrMin= 1.01D-04
 ErrMax= 1.01D-04  0.00D+00 EMaxC= 1.00D-01 BMatC= 4.61D-06 BMatP= 2.14D-05
 IDIUse=3 WtCom= 9.99D-01 WtEn= 1.01D-03
 Coeff-Com:  0.256D+00-0.337D+00-0.261D-01 0.796D-01 0.398D+00 0.629D+00
 Coeff-En:   0.000D+00 0.000D+00 0.000D+00 0.000D+00 0.000D+00 0.100D+01
 Coeff:      0.256D+00-0.336D+00-0.261D-01 0.795D-01 0.398D+00 0.629D+00
 Gap=     0.032 Goal=   None    Shift=    0.000
 Gap=     0.093 Goal=   None    Shift=    0.000
 RMSDP=5.14D-04 MaxDP=2.74D-02 DE=-1.07D-05 OVMax= 1.46D-03

 Cycle   7  Pass 1  IDiag  1:
 E= -156.436711872646     Delta-E=       -0.000002270156 Rises=F Damp=F
 DIIS: error= 2.54D-05 at cycle   7 NSaved=   7.
 NSaved= 7 IEnMin= 7 EnMin= -156.436711872646     IErMin= 7 ErrMin= 2.54D-05
 ErrMax= 2.54D-05  0.00D+00 EMaxC= 1.00D-01 BMatC= 2.63D-07 BMatP= 4.61D-06
 IDIUse=1 WtCom= 1.00D+00 WtEn= 0.00D+00
 Coeff-Com:  0.481D-01-0.627D-01-0.115D-01-0.177D-01-0.212D-01 0.174D+00
 Coeff-Com:  0.891D+00
 Coeff:      0.481D-01-0.627D-01-0.115D-01-0.177D-01-0.212D-01 0.174D+00
 Coeff:      0.891D+00
 Gap=     0.032 Goal=   None    Shift=    0.000
 Gap=     0.093 Goal=   None    Shift=    0.000
 RMSDP=1.81D-04 MaxDP=1.11D-02 DE=-2.27D-06 OVMax= 6.74D-04

 Cycle   8  Pass 1  IDiag  1:
 E= -156.436712110242     Delta-E=       -0.000000237596 Rises=F Damp=F
 DIIS: error= 4.62D-06 at cycle   8 NSaved=   8.
 NSaved= 8 IEnMin= 8 EnMin= -156.436712110242     IErMin= 8 ErrMin= 4.62D-06
 ErrMax= 4.62D-06  0.00D+00 EMaxC= 1.00D-01 BMatC= 1.49D-08 BMatP= 2.63D-07
 IDIUse=1 WtCom= 1.00D+00 WtEn= 0.00D+00
 Coeff-Com: -0.189D-01 0.250D-01 0.101D-02-0.105D-01-0.450D-01-0.476D-01
 Coeff-Com:  0.145D+00 0.951D+00
 Coeff:     -0.189D-01 0.250D-01 0.101D-02-0.105D-01-0.450D-01-0.476D-01
 Coeff:      0.145D+00 0.951D+00
 Gap=     0.032 Goal=   None    Shift=    0.000
 Gap=     0.093 Goal=   None    Shift=    0.000
 RMSDP=5.97D-05 MaxDP=3.32D-03 DE=-2.38D-07 OVMax= 2.07D-04

 Cycle   9  Pass 1  IDiag  1:
 E= -156.436712130678     Delta-E=       -0.000000020436 Rises=F Damp=F
 DIIS: error= 1.44D-06 at cycle   9 NSaved=   9.
 NSaved= 9 IEnMin= 9 EnMin= -156.436712130678     IErMin= 9 ErrMin= 1.44D-06
 ErrMax= 1.44D-06  0.00D+00 EMaxC= 1.00D-01 BMatC= 9.67D-10 BMatP= 1.49D-08
 IDIUse=1 WtCom= 1.00D+00 WtEn= 0.00D+00
 Coeff-Com: -0.263D-02 0.343D-02 0.542D-03 0.120D-02 0.736D-03-0.107D-01
 Coeff-Com: -0.549D-01 0.308D-01 0.103D+01
 Coeff:     -0.263D-02 0.343D-02 0.542D-03 0.120D-02 0.736D-03-0.107D-01
 Coeff:     -0.549D-01 0.308D-01 0.103D+01
 Gap=     0.032 Goal=   None    Shift=    0.000
 Gap=     0.093 Goal=   None    Shift=    0.000
 RMSDP=9.29D-06 MaxDP=5.60D-04 DE=-2.04D-08 OVMax= 6.12D-05

 Cycle  10  Pass 1  IDiag  1:
 E= -156.436712132432     Delta-E=       -0.000000001754 Rises=F Damp=F
 DIIS: error= 8.58D-07 at cycle  10 NSaved=  10.
 NSaved=10 IEnMin=10 EnMin= -156.436712132432     IErMin=10 ErrMin= 8.58D-07
 ErrMax= 8.58D-07  0.00D+00 EMaxC= 1.00D-01 BMatC= 3.30D-10 BMatP= 9.67D-10
 IDIUse=1 WtCom= 1.00D+00 WtEn= 0.00D+00
 Coeff-Com:  0.166D-02-0.221D-02 0.850D-04 0.201D-02 0.611D-02 0.115D-02
 Coeff-Com: -0.416D-01-0.978D-01 0.377D+00 0.753D+00
 Coeff:      0.166D-02-0.221D-02 0.850D-04 0.201D-02 0.611D-02 0.115D-02
 Coeff:     -0.416D-01-0.978D-01 0.377D+00 0.753D+00
 Gap=     0.032 Goal=   None    Shift=    0.000
 Gap=     0.093 Goal=   None    Shift=    0.000
 RMSDP=1.94D-06 MaxDP=9.51D-05 DE=-1.75D-09 OVMax= 2.52D-05

 Cycle  11  Pass 1  IDiag  1:
 E= -156.436712132772     Delta-E=       -0.000000000340 Rises=F Damp=F
 DIIS: error= 4.28D-07 at cycle  11 NSaved=  11.
 NSaved=11 IEnMin=11 EnMin= -156.436712132772     IErMin=11 ErrMin= 4.28D-07
 ErrMax= 4.28D-07  0.00D+00 EMaxC= 1.00D-01 BMatC= 1.05D-10 BMatP= 3.30D-10
 IDIUse=1 WtCom= 1.00D+00 WtEn= 0.00D+00
 Coeff-Com:  0.130D-02-0.171D-02-0.559D-04 0.653D-03 0.227D-02 0.257D-02
 Coeff-Com: -0.324D-02-0.411D-01-0.150D+00 0.355D+00 0.835D+00
 Coeff:      0.130D-02-0.171D-02-0.559D-04 0.653D-03 0.227D-02 0.257D-02
 Coeff:     -0.324D-02-0.411D-01-0.150D+00 0.355D+00 0.835D+00
 Gap=     0.032 Goal=   None    Shift=    0.000
 Gap=     0.093 Goal=   None    Shift=    0.000
 RMSDP=1.13D-06 MaxDP=8.35D-05 DE=-3.40D-10 OVMax= 2.01D-05

 Cycle  12  Pass 1  IDiag  1:
 E= -156.436712132900     Delta-E=       -0.000000000129 Rises=F Damp=F
 DIIS: error= 1.54D-07 at cycle  12 NSaved=  12.
 NSaved=12 IEnMin=12 EnMin= -156.436712132900     IErMin=12 ErrMin= 1.54D-07
 ErrMax= 1.54D-07  0.00D+00 EMaxC= 1.00D-01 BMatC= 9.93D-12 BMatP= 1.05D-10
 IDIUse=1 WtCom= 1.00D+00 WtEn= 0.00D+00
 Coeff-Com: -0.243D-03 0.324D-03-0.134D-04-0.269D-03-0.970D-03-0.525D-03
 Coeff-Com:  0.686D-02 0.236D-01-0.836D-01-0.137D+00 0.415D-01 0.115D+01
 Coeff:     -0.243D-03 0.324D-03-0.134D-04-0.269D-03-0.970D-03-0.525D-03
 Coeff:      0.686D-02 0.236D-01-0.836D-01-0.137D+00 0.415D-01 0.115D+01
 Gap=     0.032 Goal=   None    Shift=    0.000
 Gap=     0.093 Goal=   None    Shift=    0.000
 RMSDP=9.37D-07 MaxDP=5.66D-05 DE=-1.29D-10 OVMax= 1.31D-05

 Cycle  13  Pass 1  IDiag  1:
 E= -156.436712132927     Delta-E=       -0.000000000026 Rises=F Damp=F
 DIIS: error= 6.26D-08 at cycle  13 NSaved=  13.
 NSaved=13 IEnMin=13 EnMin= -156.436712132927     IErMin=13 ErrMin= 6.26D-08
 ErrMax= 6.26D-08  0.00D+00 EMaxC= 1.00D-01 BMatC= 1.22D-12 BMatP= 9.93D-12
 IDIUse=1 WtCom= 1.00D+00 WtEn= 0.00D+00
 Coeff-Com: -0.240D-03 0.317D-03 0.879D-05-0.131D-03-0.478D-03-0.590D-03
[...]
 Excitation Energies [eV] at current iteration:
 Root      1 :     0.277313010289900   Change is   -0.000319532519157
 Root      2 :     0.905908376790729   Change is   -0.004282855237251
 Root      3 :     0.940073797733251   Change is   -0.000410261139625
 Iteration     5 Dimension    29 NMult    26 NNew      3
 CISAX will form     3 AO SS matrices at one time.
 NMat=     3 NSing=     3 JSym2X=-1.
 Root      1 not converged, maximum delta is    0.002332505537836
 Root      2 not converged, maximum delta is    0.010378779178603
 Root      3 not converged, maximum delta is    0.005209223373020
 Excitation Energies [eV] at current iteration:
 Root      1 :     0.277283135606653   Change is   -0.000029874683247
 Root      2 :     0.905377670964618   Change is   -0.000530705826111
 Root      3 :     0.939974983731202   Change is   -0.000098814002049
 Iteration     6 Dimension    32 NMult    29 NNew      3
 CISAX will form     3 AO SS matrices at one time.
 NMat=     3 NSing=     3 JSym2X=-1.
 Root      1 has converged.
 Root      2 not converged, maximum delta is    0.001664238464599
 Root      3 not converged, maximum delta is    0.002023154950080
 Excitation Energies [eV] at current iteration:
 Root      1 :     0.277281299743523   Change is   -0.000001835863130
 Root      2 :     0.905218735649897   Change is   -0.000158935314721
 Root      3 :     0.939952405160915   Change is   -0.000022578570287
 Iteration     7 Dimension    34 NMult    32 NNew      2
 CISAX will form     2 AO SS matrices at one time.
 NMat=     2 NSing=     2 JSym2X=-1.
 Root      1 has converged.
 Root      2 not converged, maximum delta is    0.001014385921879
 Root      3 has converged.
 Excitation Energies [eV] at current iteration:
 Root      1 :     0.277281169581100   Change is   -0.000000130162423
 Root      2 :     0.905178709353837   Change is   -0.000040026296060
 Root      3 :     0.939950315383809   Change is   -0.000002089777107
 Iteration     8 Dimension    35 NMult    34 NNew      1
 CISAX will form     1 AO SS matrices at one time.
 NMat=     1 NSing=     1 JSym2X=-1.
 Root      1 has converged.
 Root      2 has converged.
 Root      3 has converged.
 Excitation Energies [eV] at current iteration:
 Root      1 :     0.277281169581118   Change is    0.000000000000018
 Root      2 :     0.905173308382313   Change is   -0.000005400971524
 Root      3 :     0.939950315383796   Change is   -0.000000000000012
 Convergence achieved on expansion vectors.
 ***********************************************************************
 Stability analysis using <AA,BB:AA,BB> singles matrix:
 ***********************************************************************
 1PDM for each excited state written to RWF  633
 Ground to excited state transition densities written to RWF  633

 Eigenvectors of the stability matrix:
 
 Eigenvector   1:  5.008-B    Eigenvalue= 0.0101899  <S**2>=6.021
     19A -> 20A        0.92100
     19A -> 23A       -0.36450
 
 Eigenvector   2:  5.011-A    Eigenvalue= 0.0332645  <S**2>=6.026
     19A -> 21A        0.97655
     15B -> 16B       -0.13188
 
 Eigenvector   3:  5.010-B    Eigenvalue= 0.0345425  <S**2>=6.024
     19A -> 20A        0.38470
     19A -> 23A        0.88938
     19A -> 24A        0.21986
 The wavefunction is stable under the perturbations considered.
 Leave Link  914 at Wed Jun 19 17:53:13 2019, MaxMem=  4294967296 cpu:             249.8 elap:              21.0
 (Enter /opt/gaussian/gdv-20170407-i10+/gdv/l601.exe)
 Copying SCF densities to generalized density rwf, IOpCl= 1 IROHF=0.

 **********************************************************************

            Population analysis using the SCF Density.

 **********************************************************************

 Orbital symmetries:
 Alpha Orbitals:
       Occupied  (B) (A) (A) (B) (A) (A) (A) (A) (B) (A) (B) (A)
                 (B) (A) (B) (B) (A) (A) (B)
       Virtual   (A) (B) (B) (A) (A) (B) (B) (A) (B) (A) (A) (B)
                 (A) (A) (B) (A) (A) (A) (B) (B) (B) (B) (A) (B)
                 (B) (A) (B) (A) (B) (B) (A) (A) (B) (A) (B) (A)
                 (B) (A) (B) (B) (A) (A) (A) (B) (B) (A) (A) (B)
                 (B) (B) (A) (A) (A) (B) (B) (B) (A) (A) (B) (A)
                 (B) (A) (B) (A) (B) (B) (B) (A) (A) (B) (A) (A)
                 (B) (A) (B) (A) (A) (A) (B) (B) (A) (B) (A) (B)
                 (A) (B) (B) (A) (A) (B) (A) (A) (A) (B) (B) (B)
                 (B) (A) (B) (B) (A) (A) (A) (A) (A) (B) (B) (A)
                 (B) (B) (A) (B) (A) (A) (B) (B) (B) (A) (A) (B)
                 (A) (B) (A) (A) (B) (B) (A) (B) (A) (A) (B) (A)
                 (A) (B) (A)
 Beta  Orbitals:
       Occupied  (A) (B) (A) (B) (A) (A) (A) (A) (B) (A) (B) (A)
                 (B) (A) (B)
       Virtual   (B) (A) (A) (A) (B) (B) (A) (B) (A) (B) (B) (A)
                 (B) (A) (A) (B) (A) (B) (A) (A) (A) (A) (B) (B)
                 (A) (B) (B) (B) (B) (A) (B) (B) (A) (B) (A) (A)
                 (B) (A) (B) (A) (B) (A) (B) (B) (A) (A) (A) (B)
                 (B) (A) (A) (B) (A) (B) (B) (A) (A) (B) (B) (B)
                 (A) (A) (B) (B) (A) (A) (A) (B) (B) (B) (A) (B)
                 (A) (B) (A) (A) (B) (A) (B) (A) (A) (A) (B) (B)
                 (A) (A) (B) (B) (A) (B) (B) (A) (A) (B) (A) (A)
                 (A) (B) (B) (B) (B) (A) (B) (A) (B) (A) (A) (A)
                 (A) (B) (B) (A) (B) (B) (A) (A) (B) (B) (A) (B)
                 (B) (A) (A) (B) (A) (B) (A) (A) (B) (B) (A) (B)
                 (A) (A) (B) (A) (A) (B) (A)
 The electronic state is 5-A.
 Alpha  occ. eigenvalues --   -6.58244  -6.58243  -6.56511  -6.56170  -6.56168
 Alpha  occ. eigenvalues --   -6.54724  -1.85273  -0.50197  -0.39345  -0.30762
 Alpha  occ. eigenvalues --   -0.18241  -0.15977  -0.13944  -0.12894  -0.09383
 Alpha  occ. eigenvalues --   -0.08057  -0.03662  -0.03105   0.01892
 Alpha virt. eigenvalues --    0.05450   0.07067   0.07086   0.07803   0.08392
 Alpha virt. eigenvalues --    0.11621   0.11777   0.12922   0.13567   0.13803
 Alpha virt. eigenvalues --    0.14666   0.14953   0.15223   0.15598   0.15779
 Alpha virt. eigenvalues --    0.15965   0.17907   0.17989   0.18614   0.18935
 Alpha virt. eigenvalues --    0.20439   0.20795   0.20928   0.21946   0.21988
 Alpha virt. eigenvalues --    0.22131   0.22180   0.22555   0.23157   0.24246
 Alpha virt. eigenvalues --    0.25274   0.25630   0.26429   0.26749   0.27413
 Alpha virt. eigenvalues --    0.28134   0.29723   0.30555   0.31271   0.31757
 Alpha virt. eigenvalues --    0.34179   0.37207   0.39160   0.43468   0.45076
 Alpha virt. eigenvalues --    0.46005   0.48785   0.51859   0.52311   0.52643
 Alpha virt. eigenvalues --    0.52840   0.53172   0.53575   0.55509   0.56646
 Alpha virt. eigenvalues --    0.57207   0.58227   0.59067   0.61824   0.63099
 Alpha virt. eigenvalues --    0.63428   0.63793   0.64399   0.65221   0.66222
 Alpha virt. eigenvalues --    0.66391   0.68128   0.68260   0.73233   0.74277
 Alpha virt. eigenvalues --    0.75976   0.77812   0.79256   0.80234   0.84164
 Alpha virt. eigenvalues --    0.85024   0.85884   0.86702   0.91729   0.92550
 Alpha virt. eigenvalues --    0.92599   0.97137   0.97554   1.06314   1.16699
 Alpha virt. eigenvalues --    1.21080   1.21547   1.29086   1.33298   1.34408
 Alpha virt. eigenvalues --    1.38628   1.39570   1.40852   1.41315   1.46888
 Alpha virt. eigenvalues --    1.48877   1.52635   1.53900   1.56774   1.59356
 Alpha virt. eigenvalues --    1.59965   1.64920   1.66616   1.75334   1.76353
 Alpha virt. eigenvalues --    1.79079   1.88725   1.96489   1.97925   1.98280
 Alpha virt. eigenvalues --    2.06345   2.09440   2.09456   2.13542   2.14446
 Alpha virt. eigenvalues --    2.21636   2.28104   2.29486   2.33085   2.45748
 Alpha virt. eigenvalues --    2.45772   2.52030   2.56646   2.63476   2.67648
 Alpha virt. eigenvalues --    2.72887   2.80313   3.02862   4.00545  14.07056
 Alpha virt. eigenvalues --   14.81629  14.91374  15.15671  15.17780  15.27555
  Beta  occ. eigenvalues --   -6.56947  -6.56947  -6.56451  -6.55862  -6.55860
  Beta  occ. eigenvalues --   -6.54257  -1.85165  -0.48267  -0.36479  -0.27389
  Beta  occ. eigenvalues --   -0.15245  -0.14088  -0.10129  -0.08854  -0.06689
  Beta virt. eigenvalues --    0.02557   0.04390   0.05641   0.06643   0.07198
  Beta virt. eigenvalues --    0.07240   0.08343   0.09076   0.09580   0.12320
  Beta virt. eigenvalues --    0.12963   0.13637   0.14187   0.14207   0.15048
  Beta virt. eigenvalues --    0.15448   0.15535   0.16268   0.16620   0.17181
  Beta virt. eigenvalues --    0.18430   0.19062   0.19411   0.20099   0.21176
  Beta virt. eigenvalues --    0.21280   0.21717   0.22069   0.22360   0.22456
  Beta virt. eigenvalues --    0.23656   0.23716   0.25612   0.25835   0.25903
  Beta virt. eigenvalues --    0.25972   0.26474   0.27428   0.28108   0.28785
  Beta virt. eigenvalues --    0.30133   0.30930   0.32221   0.35630   0.35778
  Beta virt. eigenvalues --    0.38796   0.39800   0.45224   0.46116   0.47709
  Beta virt. eigenvalues --    0.51079   0.53241   0.53625   0.53721   0.53981
  Beta virt. eigenvalues --    0.54315   0.55575   0.56078   0.58305   0.59853
  Beta virt. eigenvalues --    0.59887   0.60720   0.61986   0.64920   0.65164
  Beta virt. eigenvalues --    0.65340   0.66278   0.66392   0.67549   0.67667
  Beta virt. eigenvalues --    0.69429   0.70961   0.74811   0.76120   0.79476
  Beta virt. eigenvalues --    0.79707   0.80526   0.81337   0.85954   0.86191
  Beta virt. eigenvalues --    0.88514   0.89028   0.93390   0.93957   0.95894
  Beta virt. eigenvalues --    0.98451   0.99717   1.09794   1.19545   1.22820
  Beta virt. eigenvalues --    1.24856   1.31470   1.36489   1.36719   1.41249
  Beta virt. eigenvalues --    1.42899   1.43619   1.44538   1.49294   1.51475
  Beta virt. eigenvalues --    1.55851   1.56319   1.59832   1.62298   1.62444
  Beta virt. eigenvalues --    1.67190   1.67414   1.78297   1.78556   1.81057
  Beta virt. eigenvalues --    1.89615   1.98183   1.99580   1.99970   2.07482
  Beta virt. eigenvalues --    2.11764   2.11804   2.15234   2.16283   2.24148
  Beta virt. eigenvalues --    2.29967   2.30870   2.35040   2.47464   2.48379
  Beta virt. eigenvalues --    2.54250   2.58251   2.64627   2.69510   2.73776
  Beta virt. eigenvalues --    2.81567   3.04829   4.00807  14.07855  14.83011
  Beta virt. eigenvalues --   14.91645  15.16721  15.18559  15.28388
          Condensed to atoms (all electrons):
               1          2          3          4          5          6
     1  Li   3.008975  -0.075543   0.830319   0.830319  -0.428269  -0.428269
     2  B   -0.075543   5.058866  -0.410482  -0.410482  -0.087700  -0.087700
     3  B    0.830319  -0.410482   7.962618  -1.152246   0.880954  -1.679913
     4  B    0.830319  -0.410482  -1.152246   7.962618  -1.679913   0.880954
     5  B   -0.428269  -0.087700   0.880954  -1.679913   5.597581  -0.324366
     6  B   -0.428269  -0.087700  -1.679913   0.880954  -0.324366   5.597581
     7  B   -0.469291   0.080024  -0.525879  -0.525879   0.938819   0.938819
               7
     1  Li  -0.469291
     2  B    0.080024
     3  B   -0.525879
     4  B   -0.525879
     5  B    0.938819
     6  B    0.938819
     7  B    4.623212
          Atomic-Atomic Spin Densities.
               1          2          3          4          5          6
     1  Li   0.088729  -0.070590   0.039077   0.039077   0.090916   0.090916
     2  B   -0.070590   0.280211  -0.357852  -0.357852   0.040793   0.040793
     3  B    0.039077  -0.357852   1.937912  -0.498085   0.297687  -0.228981
     4  B    0.039077  -0.357852  -0.498085   1.937912  -0.228981   0.297687
     5  B    0.090916   0.040793   0.297687  -0.228981   0.412561  -0.142169
     6  B    0.090916   0.040793  -0.228981   0.297687  -0.142169   0.412561
     7  B    0.045216   0.106120   0.022562   0.022562   0.009423   0.009423
               7
     1  Li   0.045216
     2  B    0.106120
     3  B    0.022562
     4  B    0.022562
     5  B    0.009423
     6  B    0.009423
     7  B    0.394632
 Mulliken charges and spin densities:
               1          2
     1  Li  -0.268241   0.323341
     2  B    0.933018  -0.318378
     3  B   -0.905369   1.212319
     4  B   -0.905369   1.212319
     5  B    0.102893   0.480230
     6  B    0.102893   0.480230
     7  B   -0.059825   0.609939
 Sum of Mulliken charges =  -1.00000   4.00000
 Mulliken charges and spin densities with hydrogens summed into heavy atoms:
               1          2
     1  Li  -0.268241   0.323341
     2  B    0.933018  -0.318378
     3  B   -0.905369   1.212319
     4  B   -0.905369   1.212319
     5  B    0.102893   0.480230
     6  B    0.102893   0.480230
     7  B   -0.059825   0.609939
 Electronic spatial extent (au):  <R**2>=            424.7105
 Charge=             -1.0000 electrons
 Dipole moment (field-independent basis, Debye):
    X=              0.0000    Y=             -0.0000    Z=             -3.8174  Tot=              3.8174
 Quadrupole moment (field-independent basis, Debye-Ang):
   XX=            -50.4835   YY=            -66.0285   ZZ=            -45.2095
   XY=              0.0007   XZ=             -0.0000   YZ=              0.0000
 Traceless Quadrupole moment (field-independent basis, Debye-Ang):
   XX=              3.4237   YY=            -12.1213   ZZ=              8.6977
   XY=              0.0007   XZ=             -0.0000   YZ=              0.0000
 Octapole moment (field-independent basis, Debye-Ang**2):
  XXX=              0.0000  YYY=              0.0000  ZZZ=            -34.1935  XYY=              0.0000
  XXY=              0.0000  XXZ=              7.3558  XZZ=              0.0000  YZZ=              0.0000
  YYZ=             11.4985  XYZ=              0.0006
 Hexadecapole moment (field-independent basis, Debye-Ang**3):
 XXXX=           -152.3523 YYYY=           -628.0544 ZZZZ=           -403.2455 XXXY=              0.0088
 XXXZ=             -0.0000 YYYX=              0.0106 YYYZ=             -0.0000 ZZZX=             -0.0000
 ZZZY=             -0.0000 XXYY=           -122.9550 XXZZ=           -121.6624 YYZZ=           -197.1176
 XXYZ=              0.0000 YYXZ=             -0.0000 ZZXY=              0.0012
 N-N= 1.160089545804D+02 E-N=-5.989075250847D+02  KE= 1.555759055398D+02
 Symmetry A    KE= 1.034257786011D+02
 Symmetry B    KE= 5.215012693870D+01
 Symmetry A    SP= 2.000000000000D+00
 Symmetry B    SP= 2.000000000000D+00
                          Isotropic Fermi Contact Couplings
        Atom                 a.u.       MegaHertz       Gauss      10(-4) cm-1
     1  Li(7)             -0.00018      -0.07763      -0.02770      -0.02589
     2  B(11)              0.02087       7.48217       2.66982       2.49578
     3  B(11)              0.26531      95.13783      33.94755      31.73457
     4  B(11)              0.26531      95.13783      33.94755      31.73457
     5  B(11)              0.00743       2.66332       0.95034       0.88839
     6  B(11)              0.00743       2.66332       0.95034       0.88839
     7  B(11)              0.00090       0.32323       0.11534       0.10782
 --------------------------------------------------------
       Center         ----  Spin Dipole Couplings  ----
                      3XX-RR        3YY-RR        3ZZ-RR
 --------------------------------------------------------
     1   Atom       -0.027124      0.036121     -0.008997
     2   Atom       -0.103910      0.047334      0.056576
     3   Atom        0.071429     -0.159938      0.088509
     4   Atom        0.071429     -0.159938      0.088509
     5   Atom        0.093311     -0.108102      0.014791
     6   Atom        0.093311     -0.108102      0.014791
     7   Atom        0.147100     -0.107186     -0.039914
 --------------------------------------------------------
                        XY            XZ            YZ
 --------------------------------------------------------
     1   Atom       -0.000003     -0.000000      0.000000
     2   Atom       -0.000012      0.000000     -0.000000
     3   Atom        0.000005     -0.000001     -0.164446
     4   Atom        0.000005      0.000001      0.164446
     5   Atom        0.000010      0.000007     -0.031432
     6   Atom        0.000010     -0.000007      0.031432
     7   Atom       -0.000013      0.000000      0.000000
 --------------------------------------------------------


 ---------------------------------------------------------------------------------
              Anisotropic Spin Dipole Couplings in Principal Axis System
 ---------------------------------------------------------------------------------

       Atom             a.u.   MegaHertz   Gauss  10(-4) cm-1        Axes

              Baa    -0.0271    -5.625    -2.007    -1.876  1.0000  0.0001  0.0000
     1 Li(7)  Bbb    -0.0090    -1.866    -0.666    -0.622 -0.0000 -0.0000  1.0000
              Bcc     0.0361     7.490     2.673     2.499 -0.0001  1.0000  0.0000
 
              Baa    -0.1039   -17.791    -6.348    -5.934  1.0000  0.0001 -0.0000
     2 B(11)  Bbb     0.0473     8.104     2.892     2.703 -0.0001  1.0000  0.0000
              Bcc     0.0566     9.687     3.456     3.231  0.0000 -0.0000  1.0000
 
              Baa    -0.2418   -41.401   -14.773   -13.810 -0.0000  0.8952  0.4457
     3 B(11)  Bbb     0.0714    12.230     4.364     4.079  1.0000 -0.0000  0.0000
              Bcc     0.1704    29.171    10.409     9.730 -0.0000 -0.4457  0.8952
 
              Baa    -0.2418   -41.401   -14.773   -13.810 -0.0000  0.8952 -0.4457
     4 B(11)  Bbb     0.0714    12.230     4.364     4.079  1.0000 -0.0000 -0.0000
              Bcc     0.1704    29.171    10.409     9.730  0.0000  0.4457  0.8952
 
              Baa    -0.1157   -19.805    -7.067    -6.606 -0.0001  0.9722  0.2342
     5 B(11)  Bbb     0.0224     3.829     1.366     1.277 -0.0001 -0.2342  0.9722
              Bcc     0.0933    15.976     5.701     5.329  1.0000  0.0000  0.0001
 
              Baa    -0.1157   -19.805    -7.067    -6.606 -0.0001  0.9722 -0.2342
     6 B(11)  Bbb     0.0224     3.829     1.366     1.277  0.0001  0.2342  0.9722
              Bcc     0.0933    15.976     5.701     5.329  1.0000  0.0000 -0.0001
 
              Baa    -0.1072   -18.352    -6.548    -6.121  0.0001  1.0000 -0.0000
     7 B(11)  Bbb    -0.0399    -6.834    -2.438    -2.280 -0.0000  0.0000  1.0000
              Bcc     0.1471    25.186     8.987     8.401  1.0000 -0.0001  0.0000
 

 ---------------------------------------------------------------------------------

 No NMR shielding tensors so no spin-rotation constants.
 Leave Link  601 at Wed Jun 19 17:53:14 2019, MaxMem=  4294967296 cpu:               3.2 elap:               0.3
 (Enter /opt/gaussian/gdv-20170407-i10+/gdv/l9999.exe)
 Unable to Open any file for archive entry.
 1\1\GINC-NODE02\Stability\UB3LYP\Gen\B6Li1(1-,5)\HHARB\19-Jun-2019\0\\
 #p ub3lyp geom=allcheck guess=read chkbasis stable scf=(novaracc,maxcy
 cles=512) int=(acc2e=12,grid=ultrafine)\\Title Card Required\\-1,5\Li,
 0,0.,0.,-2.3280559536\B,0,0.,0.,-0.2518591857\B,0,-0.2015684953,1.5902
 280987,-0.7425802387\B,0,0.2015684953,-1.5902280987,-0.7425802387\B,0,
 -0.1749638357,1.3813175224,0.8117395989\B,0,0.1749638357,-1.3813175224
 ,0.8117395989\B,0,0.,0.,1.5165964189\\Version=ES64L-GDVRevI.10+\State=
 5-A\HF=-156.4424336\S2=6.023732\S2-1=0.\S2A=6.000183\RMSD=7.961e-09\Di
 pole=0.,0.,-1.5018831\Quadrupole=2.3627828,-8.8292986,6.4665158,1.4412
 69,0.,0.\PG=C02 [C2(Li1B1B1),X(B4)]\\@
 The archive entry for this job was punched.


 EVERYTHING'S GOT A MORAL, IF ONLY YOU CAN FIND IT.

                                    -- LEWIS CARROL, ALICE IN WONDERLAND
 Job cpu time:       0 days  0 hours  4 minutes 42.9 seconds.
 Elapsed time:       0 days  0 hours  0 minutes 24.0 seconds.
 File lengths (MBytes):  RWF=    125 Int=      0 D2E=      0 Chk=     67 Scr=      1
 Normal termination of Gaussian DV at Wed Jun 19 17:53:14 2019.
