 Entering Gaussian System, Link 0=g16
 Input=base_molecule_Li_6_5_008.com
 Output=base_molecule_Li_6_5_008.log
 Initial command:
 /soft/gaussian/16-c.01/g16/l1.exe "/scratch/Gau-189912.inp" -scrdir="/scratch/"
 Default CPUs for threads: 0-63
 Default linda workers: knld-0014
 Default is to use  64 SMP processors on each worker.
 Entering Link 1 = /soft/gaussian/16-c.01/g16/l1.exe PID=    189913.
  
 Copyright (c) 1988-2019, Gaussian, Inc.  All Rights Reserved.
  
 This is part of the Gaussian(R) 16 program.  It is based on
 the Gaussian(R) 09 system (copyright 2009, Gaussian, Inc.),
 the Gaussian(R) 03 system (copyright 2003, Gaussian, Inc.),
 the Gaussian(R) 98 system (copyright 1998, Gaussian, Inc.),
 the Gaussian(R) 94 system (copyright 1995, Gaussian, Inc.),
 the Gaussian 92(TM) system (copyright 1992, Gaussian, Inc.),
 the Gaussian 90(TM) system (copyright 1990, Gaussian, Inc.),
 the Gaussian 88(TM) system (copyright 1988, Gaussian, Inc.),
 the Gaussian 86(TM) system (copyright 1986, Carnegie Mellon
 University), and the Gaussian 82(TM) system (copyright 1983,
 Carnegie Mellon University). Gaussian is a federally registered
 trademark of Gaussian, Inc.
  
 This software contains proprietary and confidential information,
 including trade secrets, belonging to Gaussian, Inc.
  
 This software is provided under written license and may be
 used, copied, transmitted, or stored only in accord with that
 written license.
  
 The following legend is applicable only to US Government
 contracts under FAR:
  
                    RESTRICTED RIGHTS LEGEND
  
 Use, reproduction and disclosure by the US Government is
 subject to restrictions as set forth in subparagraphs (a)
 and (c) of the Commercial Computer Software - Restricted
 Rights clause in FAR 52.227-19.
  
 Gaussian, Inc.
 340 Quinnipiac St., Bldg. 40, Wallingford CT 06492
  
  
 ---------------------------------------------------------------
 Warning -- This program may not be used in any manner that
 competes with the business of Gaussian, Inc. or will provide
 assistance to any competitor of Gaussian, Inc.  The licensee
 of this program is prohibited from giving any competitor of
 Gaussian, Inc. access to this program.  By using this program,
 the user acknowledges that Gaussian, Inc. is engaged in the
 business of creating and licensing software in the field of
 computational chemistry and represents and warrants to the
 licensee that it is not a competitor of Gaussian, Inc. and that
 it will not use this program in any manner prohibited above.
 ---------------------------------------------------------------
  

 Cite this work as:
 Gaussian 16, Revision C.01,
 M. J. Frisch, G. W. Trucks, H. B. Schlegel, G. E. Scuseria, 
 M. A. Robb, J. R. Cheeseman, G. Scalmani, V. Barone, 
 G. A. Petersson, H. Nakatsuji, X. Li, M. Caricato, A. V. Marenich, 
 J. Bloino, B. G. Janesko, R. Gomperts, B. Mennucci, H. P. Hratchian, 
 J. V. Ortiz, A. F. Izmaylov, J. L. Sonnenberg, D. Williams-Young, 
 F. Ding, F. Lipparini, F. Egidi, J. Goings, B. Peng, A. Petrone, 
 T. Henderson, D. Ranasinghe, V. G. Zakrzewski, J. Gao, N. Rega, 
 G. Zheng, W. Liang, M. Hada, M. Ehara, K. Toyota, R. Fukuda, 
 J. Hasegawa, M. Ishida, T. Nakajima, Y. Honda, O. Kitao, H. Nakai, 
 T. Vreven, K. Throssell, J. A. Montgomery, Jr., J. E. Peralta, 
 F. Ogliaro, M. J. Bearpark, J. J. Heyd, E. N. Brothers, K. N. Kudin, 
 V. N. Staroverov, T. A. Keith, R. Kobayashi, J. Normand, 
 K. Raghavachari, A. P. Rendell, J. C. Burant, S. S. Iyengar, 
 J. Tomasi, M. Cossi, J. M. Millam, M. Klene, C. Adamo, R. Cammi, 
 J. W. Ochterski, R. L. Martin, K. Morokuma, O. Farkas, 
 J. B. Foresman, and D. J. Fox, Gaussian, Inc., Wallingford CT, 2019.
 
 ******************************************
 Gaussian 16:  ES64L-G16RevC.01  3-Jul-2019
                26-Oct-2023 
 ******************************************
 %chk=base_molecule_Li_6_5_008.chk
 SetSPE:  set environment variable "MP_BIND" = "yes"
 SetSPE:  set environment variable "MP_BLIST" = "0,1,2,3,4,5,6,7,8,9,10,11,12,13,14,15,16,17,18,19,20,21,22,23,24,25,26,27,28,29,30,31,32,33,34,35,36,37,38,39,40,41,42,43,44,45,46,47,48,49,50,51,52,53,54,55,56,57,58,59,60,61,62,63"
 SetLPE:    new flags="-opt 'Tsnet.Node.lindarsharg: ssh'  -nodelist 'knld-0014.lcrc.anl.gov' -env GAUSS_MDEF=6710886400 -env GAUSS_EXEDIR="/soft/gaussian/16-c.01/g16/bsd:/soft/gaussian/16-c.01/g16" -env "MP_BIND=yes" -env "MP_BLIST=0,1,2,3,4,5,6,7,8,9,10,11,12,13,14,15,16,17,18,19,20,21,22,23,24,25,26,27,28,29,30,31,32,33,34,35,36,37,38,39,40,41,42,43,44,45,46,47,48,49,50,51,52,53,54,55,56,57,58,59,60,61,62,63" -env GAUSS_ADEF="0,1,2,3,4,5,6,7,8,9,10,11,12,13,14,15,16,17,18,19,20,21,22,23,24,25,26,27,28,29,30,31,32,33,34,35,36,37,38,39,40,41,42,43,44,45,46,47,48,49,50,51,52,53,54,55,56,57,58,59,60,61,62,63""
 Will use up to    1 processors via Linda.
 ----------------------------------------------------------------------
 #p opt freq b3lyp empiricaldispersion=gd3 6-31+g(d,p) scf=(novaracc,ma
 xcycles=1000,fermi,xqc)
 ----------------------------------------------------------------------
 1/18=20,19=15,26=3,38=1/1,3;
 2/9=110,12=2,17=6,18=5,40=1/2;
 3/5=1,6=6,7=111,11=2,25=1,30=1,71=1,74=-5,124=31/1,2,3;
 4//1;
 5/5=2,7=1000,8=3,13=1,22=13,38=1/2,8;
 6/7=2,8=2,9=2,10=2,28=1/1;
 7//1,2,3,16;
 1/18=20,19=15,26=3/3(2);
 2/9=110/2;
 99//99;
 2/9=110/2;
 3/5=1,6=6,7=111,11=2,25=1,30=1,71=1,74=-5,124=31/1,2,3;
 4/5=5,16=3,69=1/1;
 5/5=2,7=1000,8=3,13=1,22=13,38=1/2,8;
 7//1,2,3,16;
 1/18=20,19=15,26=3/3(-5);
 2/9=110/2;
 6/7=2,8=2,9=2,10=2,19=2,28=1/1;
 99/9=1/99;
 Leave Link    1 at Thu Oct 26 23:14:02 2023, MaxMem=           0 cpu:              14.5 elap:               0.2
 (Enter /soft/gaussian/16-c.01/g16/l101.exe)
 -----------------------
 Title (can be anything)
 -----------------------
 Symbolic Z-matrix:
 Charge =  6 Multiplicity = 1
 C                     0.42632   0.52481   0.16727 
 C                    -0.96855   0.35254   0.15002 
 C                    -1.63505  -0.10043  -0.99933 
 C                    -0.84753  -0.37308  -2.13208 
 C                     0.5408   -0.19602  -2.11632 
 C                     1.21114   0.25693  -0.96549 
 C                     2.76138   0.43322  -1.01834 
 C                     3.35953   1.25049   0.13888 
 C                     3.49486  -0.92708  -1.00648 
 H                     2.99727   0.94218  -1.95739 
 C                     3.83356  -1.44848   0.1931 
 C                     4.71033  -2.63921   0.43521 
 C                     5.00271  -3.45808  -0.73422 
 C                     4.62071  -2.98158  -2.02358 
 C                     4.02622  -1.63817  -2.20254 
 C                     3.71615   0.58826   1.26159 
 C                     4.48857   1.14119   2.42164 
 C                     4.63563   2.58968   2.44959 
 C                     4.23111   3.34735   1.30999 
 C                     3.75809   2.68572   0.07301 
 C                     5.19548   3.2214    3.56595 
 C                     5.32664   4.61888   3.59131 
 C                     4.89429   5.3753    2.50011 
 C                     4.35779   4.74153   1.36815 
 C                     5.67571  -4.67663  -0.59354 
 C                     5.94613  -5.46574  -1.7231 
 C                     5.5374   -5.03187  -2.98591 
 C                     4.88621  -3.79695  -3.13226 
 O                     5.16223  -2.8081    1.57328 
 O                     4.00212  -1.068    -3.3211 
 O                     4.97972   0.34216   3.22686 
 O                     3.73187   3.28229  -1.02955 
 C                    -3.17836  -0.29748  -1.06503 
 C                    -3.73567  -1.13847   0.07922 
 C                    -3.94665   1.02329  -1.08681 
 H                    -3.3859   -0.82374  -2.00098 
 C                    -4.54269   1.50545   0.0368 
 C                    -4.19869   1.74686  -2.36238 
 C                    -4.66296   3.14296  -2.30575 
 C                    -5.18311   3.67646  -1.09419 
 C                    -5.21321   2.85355   0.11862 
 C                    -4.62584   3.95223  -3.44636 
 C                    -5.11524   5.26758  -3.41762 
 C                    -5.65038   5.78291  -2.23621 
 C                    -5.67735   4.98794  -1.08236 
 C                    -4.3583   -0.55627   1.13918 
 C                    -3.74876  -2.62549   0.00516 
 C                    -3.97007  -3.38947   1.24412 
 C                    -4.53389  -2.75117   2.38244 
 C                    -4.88691  -1.3293    2.32263 
 C                    -3.65317  -4.75049   1.31162 
 C                    -3.89112  -5.48992   2.48084 
 C                    -4.45175  -4.86554   3.59638 
 C                    -4.7697   -3.5015    3.54225 
 O                     3.60049  -0.76612   1.34921 
 O                    -4.61944   0.78284   1.19369 
 O                    -3.61023  -3.1868   -1.10519 
 O                    -5.57859  -0.75307   3.17879 
 O                    -4.06233   1.13843  -3.44879 
 O                    -5.73547   3.21498   1.18686 
 H                     5.98436  -5.0056    0.39409 
 H                     6.46897  -6.41111  -1.61183 
 H                     5.72723  -5.64924  -3.85888 
 H                     4.55165  -3.50023  -4.12227 
 H                    -3.17779  -5.24075   0.46807 
 H                    -3.63388  -6.54435   2.51957 
 H                    -4.63696  -5.43176   4.50445 
 H                    -5.18233  -3.02743   4.42553 
 H                    -4.17557   3.58149  -4.36169 
 H                    -5.07574   5.88289  -4.31174 
 H                    -6.04046   6.79608  -2.20844 
 H                     0.88762   0.88094   1.08296 
 H                    -1.52574   0.57805   1.05592 
 H                    -1.31733  -0.72517  -3.04639 
 H                     1.10599  -0.41229  -3.01909 
 H                     5.52428   2.62234   4.40969 
 H                     5.76076   5.10738   4.45867 
 H                    -6.08721   5.40915  -0.17208 
 H                     4.97681   6.45778   2.52437 
 H                     4.00302   5.3575    0.547 
 Li                   -4.70546   1.00809  -5.21848 
 Li                   -6.7941   -0.72019   4.63543 
 Li                   -6.71968   4.33481   2.34068 
 Li                    5.29462  -1.62031   3.16407 
 Li                    4.50978   4.69401  -1.97458 
 Li                   -4.09068  -4.68544  -2.14065 
 
 Add virtual bond connecting atoms Li84       and O29        Dist= 3.76D+00.
 Add virtual bond connecting atoms Li84       and O31        Dist= 3.76D+00.
 ITRead=  0  0  0  0  0  0  0  0  0  0  0  0  0  0  0  0  0  0  0  0
 ITRead=  0  0  0  0  0  0  0  0  0  0  0  0  0  0  0  0  0  0  0  0
 ITRead=  0  0  0  0  0  0  0  0  0  0  0  0  0  0  0  0  0  0  0  0
 ITRead=  0  0  0  0  0  0  0  0  0  0  0  0  0  0  0  0  0  0  0  0
 ITRead=  0  0  0  0  0  0
 MicOpt= -1 -1 -1 -1 -1 -1 -1 -1 -1 -1 -1 -1 -1 -1 -1 -1 -1 -1 -1 -1
 MicOpt= -1 -1 -1 -1 -1 -1 -1 -1 -1 -1 -1 -1 -1 -1 -1 -1 -1 -1 -1 -1
 MicOpt= -1 -1 -1 -1 -1 -1 -1 -1 -1 -1 -1 -1 -1 -1 -1 -1 -1 -1 -1 -1
 MicOpt= -1 -1 -1 -1 -1 -1 -1 -1 -1 -1 -1 -1 -1 -1 -1 -1 -1 -1 -1 -1
 MicOpt= -1 -1 -1 -1 -1 -1
 NAtoms=     86 NQM=       86 NQMF=       0 NMMI=      0 NMMIF=      0
                NMic=       0 NMicF=      0.
                    Isotopes and Nuclear Properties:
 (Nuclear quadrupole moments (NQMom) in fm**2, nuclear magnetic moments (NMagM)
  in nuclear magnetons)

  Atom         1           2           3           4           5           6           7           8           9          10
 IAtWgt=          12          12          12          12          12          12          12          12          12           1
 AtmWgt=  12.0000000  12.0000000  12.0000000  12.0000000  12.0000000  12.0000000  12.0000000  12.0000000  12.0000000   1.0078250
 NucSpn=           0           0           0           0           0           0           0           0           0           1
 AtZEff=  -0.0000000  -0.0000000  -0.0000000  -0.0000000  -0.0000000  -0.0000000  -0.0000000  -0.0000000  -0.0000000  -0.0000000
 NQMom=    0.0000000   0.0000000   0.0000000   0.0000000   0.0000000   0.0000000   0.0000000   0.0000000   0.0000000   0.0000000
 NMagM=    0.0000000   0.0000000   0.0000000   0.0000000   0.0000000   0.0000000   0.0000000   0.0000000   0.0000000   2.7928460
 AtZNuc=   6.0000000   6.0000000   6.0000000   6.0000000   6.0000000   6.0000000   6.0000000   6.0000000   6.0000000   1.0000000

  Atom        11          12          13          14          15          16          17          18          19          20
 IAtWgt=          12          12          12          12          12          12          12          12          12          12
 AtmWgt=  12.0000000  12.0000000  12.0000000  12.0000000  12.0000000  12.0000000  12.0000000  12.0000000  12.0000000  12.0000000
 NucSpn=           0           0           0           0           0           0           0           0           0           0
 AtZEff=  -0.0000000  -0.0000000  -0.0000000  -0.0000000  -0.0000000  -0.0000000  -0.0000000  -0.0000000  -0.0000000  -0.0000000
 NQMom=    0.0000000   0.0000000   0.0000000   0.0000000   0.0000000   0.0000000   0.0000000   0.0000000   0.0000000   0.0000000
 NMagM=    0.0000000   0.0000000   0.0000000   0.0000000   0.0000000   0.0000000   0.0000000   0.0000000   0.0000000   0.0000000
 AtZNuc=   6.0000000   6.0000000   6.0000000   6.0000000   6.0000000   6.0000000   6.0000000   6.0000000   6.0000000   6.0000000

  Atom        21          22          23          24          25          26          27          28          29          30
 IAtWgt=          12          12          12          12          12          12          12          12          16          16
 AtmWgt=  12.0000000  12.0000000  12.0000000  12.0000000  12.0000000  12.0000000  12.0000000  12.0000000  15.9949146  15.9949146
 NucSpn=           0           0           0           0           0           0           0           0           0           0
 AtZEff=  -0.0000000  -0.0000000  -0.0000000  -0.0000000  -0.0000000  -0.0000000  -0.0000000  -0.0000000  -0.0000000  -0.0000000
 NQMom=    0.0000000   0.0000000   0.0000000   0.0000000   0.0000000   0.0000000   0.0000000   0.0000000   0.0000000   0.0000000
 NMagM=    0.0000000   0.0000000   0.0000000   0.0000000   0.0000000   0.0000000   0.0000000   0.0000000   0.0000000   0.0000000
 AtZNuc=   6.0000000   6.0000000   6.0000000   6.0000000   6.0000000   6.0000000   6.0000000   6.0000000   8.0000000   8.0000000

  Atom        31          32          33          34          35          36          37          38          39          40
 IAtWgt=          16          16          12          12          12           1          12          12          12          12
 AtmWgt=  15.9949146  15.9949146  12.0000000  12.0000000  12.0000000   1.0078250  12.0000000  12.0000000  12.0000000  12.0000000
 NucSpn=           0           0           0           0           0           1           0           0           0           0
 AtZEff=  -0.0000000  -0.0000000  -0.0000000  -0.0000000  -0.0000000  -0.0000000  -0.0000000  -0.0000000  -0.0000000  -0.0000000
 NQMom=    0.0000000   0.0000000   0.0000000   0.0000000   0.0000000   0.0000000   0.0000000   0.0000000   0.0000000   0.0000000
 NMagM=    0.0000000   0.0000000   0.0000000   0.0000000   0.0000000   2.7928460   0.0000000   0.0000000   0.0000000   0.0000000
 AtZNuc=   8.0000000   8.0000000   6.0000000   6.0000000   6.0000000   1.0000000   6.0000000   6.0000000   6.0000000   6.0000000

  Atom        41          42          43          44          45          46          47          48          49          50
 IAtWgt=          12          12          12          12          12          12          12          12          12          12
 AtmWgt=  12.0000000  12.0000000  12.0000000  12.0000000  12.0000000  12.0000000  12.0000000  12.0000000  12.0000000  12.0000000
 NucSpn=           0           0           0           0           0           0           0           0           0           0
 AtZEff=  -0.0000000  -0.0000000  -0.0000000  -0.0000000  -0.0000000  -0.0000000  -0.0000000  -0.0000000  -0.0000000  -0.0000000
 NQMom=    0.0000000   0.0000000   0.0000000   0.0000000   0.0000000   0.0000000   0.0000000   0.0000000   0.0000000   0.0000000
 NMagM=    0.0000000   0.0000000   0.0000000   0.0000000   0.0000000   0.0000000   0.0000000   0.0000000   0.0000000   0.0000000
 AtZNuc=   6.0000000   6.0000000   6.0000000   6.0000000   6.0000000   6.0000000   6.0000000   6.0000000   6.0000000   6.0000000

  Atom        51          52          53          54          55          56          57          58          59          60
 IAtWgt=          12          12          12          12          16          16          16          16          16          16
 AtmWgt=  12.0000000  12.0000000  12.0000000  12.0000000  15.9949146  15.9949146  15.9949146  15.9949146  15.9949146  15.9949146
 NucSpn=           0           0           0           0           0           0           0           0           0           0
 AtZEff=  -0.0000000  -0.0000000  -0.0000000  -0.0000000  -0.0000000  -0.0000000  -0.0000000  -0.0000000  -0.0000000  -0.0000000
 NQMom=    0.0000000   0.0000000   0.0000000   0.0000000   0.0000000   0.0000000   0.0000000   0.0000000   0.0000000   0.0000000
 NMagM=    0.0000000   0.0000000   0.0000000   0.0000000   0.0000000   0.0000000   0.0000000   0.0000000   0.0000000   0.0000000
 AtZNuc=   6.0000000   6.0000000   6.0000000   6.0000000   8.0000000   8.0000000   8.0000000   8.0000000   8.0000000   8.0000000

  Atom        61          62          63          64          65          66          67          68          69          70
 IAtWgt=           1           1           1           1           1           1           1           1           1           1
 AtmWgt=   1.0078250   1.0078250   1.0078250   1.0078250   1.0078250   1.0078250   1.0078250   1.0078250   1.0078250   1.0078250
 NucSpn=           1           1           1           1           1           1           1           1           1           1
 AtZEff=  -0.0000000  -0.0000000  -0.0000000  -0.0000000  -0.0000000  -0.0000000  -0.0000000  -0.0000000  -0.0000000  -0.0000000
 NQMom=    0.0000000   0.0000000   0.0000000   0.0000000   0.0000000   0.0000000   0.0000000   0.0000000   0.0000000   0.0000000
 NMagM=    2.7928460   2.7928460   2.7928460   2.7928460   2.7928460   2.7928460   2.7928460   2.7928460   2.7928460   2.7928460
 AtZNuc=   1.0000000   1.0000000   1.0000000   1.0000000   1.0000000   1.0000000   1.0000000   1.0000000   1.0000000   1.0000000

  Atom        71          72          73          74          75          76          77          78          79          80
 IAtWgt=           1           1           1           1           1           1           1           1           1           1
 AtmWgt=   1.0078250   1.0078250   1.0078250   1.0078250   1.0078250   1.0078250   1.0078250   1.0078250   1.0078250   1.0078250
 NucSpn=           1           1           1           1           1           1           1           1           1           1
 AtZEff=  -0.0000000  -0.0000000  -0.0000000  -0.0000000  -0.0000000  -0.0000000  -0.0000000  -0.0000000  -0.0000000  -0.0000000
 NQMom=    0.0000000   0.0000000   0.0000000   0.0000000   0.0000000   0.0000000   0.0000000   0.0000000   0.0000000   0.0000000
 NMagM=    2.7928460   2.7928460   2.7928460   2.7928460   2.7928460   2.7928460   2.7928460   2.7928460   2.7928460   2.7928460
 AtZNuc=   1.0000000   1.0000000   1.0000000   1.0000000   1.0000000   1.0000000   1.0000000   1.0000000   1.0000000   1.0000000

  Atom        81          82          83          84          85          86
 IAtWgt=           7           7           7           7           7           7
 AtmWgt=   7.0160045   7.0160045   7.0160045   7.0160045   7.0160045   7.0160045
 NucSpn=           3           3           3           3           3           3
 AtZEff=  -0.0000000  -0.0000000  -0.0000000  -0.0000000  -0.0000000  -0.0000000
 NQMom=   -4.0100000  -4.0100000  -4.0100000  -4.0100000  -4.0100000  -4.0100000
 NMagM=    3.2564240   3.2564240   3.2564240   3.2564240   3.2564240   3.2564240
 AtZNuc=   3.0000000   3.0000000   3.0000000   3.0000000   3.0000000   3.0000000
 Leave Link  101 at Thu Oct 26 23:14:03 2023, MaxMem=  6710886400 cpu:              35.7 elap:               0.6
 (Enter /soft/gaussian/16-c.01/g16/l103.exe)

 GradGradGradGradGradGradGradGradGradGradGradGradGradGradGradGradGradGrad
 Berny optimization.
 Initialization pass.
                           ----------------------------
                           !    Initial Parameters    !
                           ! (Angstroms and Degrees)  !
 --------------------------                            --------------------------
 ! Name  Definition              Value          Derivative Info.                !
 --------------------------------------------------------------------------------
 ! R1    R(1,2)                  1.4056         estimate D2E/DX2                !
 ! R2    R(1,6)                  1.4039         estimate D2E/DX2                !
 ! R3    R(1,72)                 1.0854         estimate D2E/DX2                !
 ! R4    R(2,3)                  1.4037         estimate D2E/DX2                !
 ! R5    R(2,73)                 1.0872         estimate D2E/DX2                !
 ! R6    R(3,4)                  1.4063         estimate D2E/DX2                !
 ! R7    R(3,33)                 1.5572         estimate D2E/DX2                !
 ! R8    R(4,5)                  1.3997         estimate D2E/DX2                !
 ! R9    R(4,74)                 1.0866         estimate D2E/DX2                !
 ! R10   R(5,6)                  1.4067         estimate D2E/DX2                !
 ! R11   R(5,75)                 1.0868         estimate D2E/DX2                !
 ! R12   R(6,7)                  1.5611         estimate D2E/DX2                !
 ! R13   R(7,8)                  1.5378         estimate D2E/DX2                !
 ! R14   R(7,9)                  1.5455         estimate D2E/DX2                !
 ! R15   R(7,10)                 1.0938         estimate D2E/DX2                !
 ! R16   R(8,16)                 1.3514         estimate D2E/DX2                !
 ! R17   R(8,20)                 1.491          estimate D2E/DX2                !
 ! R18   R(9,11)                 1.3511         estimate D2E/DX2                !
 ! R19   R(9,15)                 1.4895         estimate D2E/DX2                !
 ! R20   R(11,12)                1.4984         estimate D2E/DX2                !
 ! R21   R(11,55)                1.3625         estimate D2E/DX2                !
 ! R22   R(12,13)                1.4573         estimate D2E/DX2                !
 ! R23   R(12,29)                1.2361         estimate D2E/DX2                !
 ! R24   R(13,14)                1.4267         estimate D2E/DX2                !
 ! R25   R(13,25)                1.3991         estimate D2E/DX2                !
 ! R26   R(14,15)                1.4799         estimate D2E/DX2                !
 ! R27   R(14,28)                1.4016         estimate D2E/DX2                !
 ! R28   R(15,30)                1.2557         estimate D2E/DX2                !
 ! R29   R(16,17)                1.4994         estimate D2E/DX2                !
 ! R30   R(16,55)                1.3621         estimate D2E/DX2                !
 ! R31   R(17,18)                1.4562         estimate D2E/DX2                !
 ! R32   R(17,31)                1.2361         estimate D2E/DX2                !
 ! R33   R(18,19)                1.427          estimate D2E/DX2                !
 ! R34   R(18,21)                1.3996         estimate D2E/DX2                !
 ! R35   R(19,20)                1.4804         estimate D2E/DX2                !
 ! R36   R(19,24)                1.4011         estimate D2E/DX2                !
 ! R37   R(20,32)                1.2539         estimate D2E/DX2                !
 ! R38   R(21,22)                1.4039         estimate D2E/DX2                !
 ! R39   R(21,76)                1.0858         estimate D2E/DX2                !
 ! R40   R(22,23)                1.3964         estimate D2E/DX2                !
 ! R41   R(22,77)                1.086          estimate D2E/DX2                !
 ! R42   R(23,24)                1.4039         estimate D2E/DX2                !
 ! R43   R(23,79)                1.0859         estimate D2E/DX2                !
 ! R44   R(24,80)                1.0861         estimate D2E/DX2                !
 ! R45   R(25,26)                1.4042         estimate D2E/DX2                !
 ! R46   R(25,61)                1.0858         estimate D2E/DX2                !
 ! R47   R(26,27)                1.3964         estimate D2E/DX2                !
 ! R48   R(26,62)                1.086          estimate D2E/DX2                !
 ! R49   R(27,28)                1.4037         estimate D2E/DX2                !
 ! R50   R(27,63)                1.0859         estimate D2E/DX2                !
 ! R51   R(28,64)                1.0863         estimate D2E/DX2                !
 ! R52   R(29,84)                1.9897         estimate D2E/DX2                !
 ! R53   R(31,84)                1.9886         estimate D2E/DX2                !
 ! R54   R(32,85)                1.8685         estimate D2E/DX2                !
 ! R55   R(33,34)                1.5255         estimate D2E/DX2                !
 ! R56   R(33,35)                1.5281         estimate D2E/DX2                !
 ! R57   R(33,36)                1.0936         estimate D2E/DX2                !
 ! R58   R(34,46)                1.3602         estimate D2E/DX2                !
 ! R59   R(34,47)                1.4889         estimate D2E/DX2                !
 ! R60   R(35,37)                1.3602         estimate D2E/DX2                !
 ! R61   R(35,38)                1.488          estimate D2E/DX2                !
 ! R62   R(37,41)                1.5079         estimate D2E/DX2                !
 ! R63   R(37,56)                1.3662         estimate D2E/DX2                !
 ! R64   R(38,39)                1.4724         estimate D2E/DX2                !
 ! R65   R(38,59)                1.2526         estimate D2E/DX2                !
 ! R66   R(39,40)                1.4223         estimate D2E/DX2                !
 ! R67   R(39,42)                1.399          estimate D2E/DX2                !
 ! R68   R(40,41)                1.4659         estimate D2E/DX2                !
 ! R69   R(40,45)                1.4016         estimate D2E/DX2                !
 ! R70   R(41,60)                1.2428         estimate D2E/DX2                !
 ! R71   R(42,43)                1.4037         estimate D2E/DX2                !
 ! R72   R(42,69)                1.0854         estimate D2E/DX2                !
 ! R73   R(43,44)                1.3956         estimate D2E/DX2                !
 ! R74   R(43,70)                1.0861         estimate D2E/DX2                !
 ! R75   R(44,45)                1.4015         estimate D2E/DX2                !
 ! R76   R(44,71)                1.086          estimate D2E/DX2                !
 ! R77   R(45,78)                1.0835         estimate D2E/DX2                !
 ! R78   R(46,50)                1.5092         estimate D2E/DX2                !
 ! R79   R(46,56)                1.3654         estimate D2E/DX2                !
 ! R80   R(47,48)                1.4723         estimate D2E/DX2                !
 ! R81   R(47,57)                1.2519         estimate D2E/DX2                !
 ! R82   R(48,49)                1.4217         estimate D2E/DX2                !
 ! R83   R(48,51)                1.399          estimate D2E/DX2                !
 ! R84   R(49,50)                1.4663         estimate D2E/DX2                !
 ! R85   R(49,54)                1.4013         estimate D2E/DX2                !
 ! R86   R(50,58)                1.2424         estimate D2E/DX2                !
 ! R87   R(51,52)                1.4037         estimate D2E/DX2                !
 ! R88   R(51,65)                1.0853         estimate D2E/DX2                !
 ! R89   R(52,53)                1.3959         estimate D2E/DX2                !
 ! R90   R(52,66)                1.086          estimate D2E/DX2                !
 ! R91   R(53,54)                1.4016         estimate D2E/DX2                !
 ! R92   R(53,67)                1.086          estimate D2E/DX2                !
 ! R93   R(54,68)                1.0841         estimate D2E/DX2                !
 ! R94   R(57,86)                1.8839         estimate D2E/DX2                !
 ! R95   R(58,82)                1.8975         estimate D2E/DX2                !
 ! R96   R(59,81)                1.8874         estimate D2E/DX2                !
 ! R97   R(60,83)                1.8852         estimate D2E/DX2                !
 ! A1    A(2,1,6)              121.432          estimate D2E/DX2                !
 ! A2    A(2,1,72)             118.1861         estimate D2E/DX2                !
 ! A3    A(6,1,72)             120.3801         estimate D2E/DX2                !
 ! A4    A(1,2,3)              121.3857         estimate D2E/DX2                !
 ! A5    A(1,2,73)             118.2255         estimate D2E/DX2                !
 ! A6    A(3,2,73)             120.3886         estimate D2E/DX2                !
 ! A7    A(2,3,4)              117.142          estimate D2E/DX2                !
 ! A8    A(2,3,33)             123.0894         estimate D2E/DX2                !
 ! A9    A(4,3,33)             119.7674         estimate D2E/DX2                !
 ! A10   A(3,4,5)              121.4581         estimate D2E/DX2                !
 ! A11   A(3,4,74)             119.8995         estimate D2E/DX2                !
 ! A12   A(5,4,74)             118.6418         estimate D2E/DX2                !
 ! A13   A(4,5,6)              121.5066         estimate D2E/DX2                !
 ! A14   A(4,5,75)             118.7702         estimate D2E/DX2                !
 ! A15   A(6,5,75)             119.7228         estimate D2E/DX2                !
 ! A16   A(1,6,5)              117.0746         estimate D2E/DX2                !
 ! A17   A(1,6,7)              124.1188         estimate D2E/DX2                !
 ! A18   A(5,6,7)              118.8065         estimate D2E/DX2                !
 ! A19   A(6,7,8)              114.8841         estimate D2E/DX2                !
 ! A20   A(6,7,9)              111.8165         estimate D2E/DX2                !
 ! A21   A(6,7,10)             107.2027         estimate D2E/DX2                !
 ! A22   A(8,7,9)              106.1048         estimate D2E/DX2                !
 ! A23   A(8,7,10)             108.3521         estimate D2E/DX2                !
 ! A24   A(9,7,10)             108.2872         estimate D2E/DX2                !
 ! A25   A(7,8,16)             117.865          estimate D2E/DX2                !
 ! A26   A(7,8,20)             125.6126         estimate D2E/DX2                !
 ! A27   A(16,8,20)            115.9685         estimate D2E/DX2                !
 ! A28   A(7,9,11)             117.7384         estimate D2E/DX2                !
 ! A29   A(7,9,15)             125.6866         estimate D2E/DX2                !
 ! A30   A(11,9,15)            116.0576         estimate D2E/DX2                !
 ! A31   A(9,11,12)            126.6408         estimate D2E/DX2                !
 ! A32   A(9,11,55)            121.1435         estimate D2E/DX2                !
 ! A33   A(12,11,55)           111.1593         estimate D2E/DX2                !
 ! A34   A(11,12,13)           115.7396         estimate D2E/DX2                !
 ! A35   A(11,12,29)           118.1165         estimate D2E/DX2                !
 ! A36   A(13,12,29)           126.0658         estimate D2E/DX2                !
 ! A37   A(12,13,14)           118.9366         estimate D2E/DX2                !
 ! A38   A(12,13,25)           120.3455         estimate D2E/DX2                !
 ! A39   A(14,13,25)           120.7007         estimate D2E/DX2                !
 ! A40   A(13,14,15)           121.3339         estimate D2E/DX2                !
 ! A41   A(13,14,28)           118.0249         estimate D2E/DX2                !
 ! A42   A(15,14,28)           120.565          estimate D2E/DX2                !
 ! A43   A(9,15,14)            118.6574         estimate D2E/DX2                !
 ! A44   A(9,15,30)            119.4504         estimate D2E/DX2                !
 ! A45   A(14,15,30)           121.8432         estimate D2E/DX2                !
 ! A46   A(8,16,17)            126.7276         estimate D2E/DX2                !
 ! A47   A(8,16,55)            121.2174         estimate D2E/DX2                !
 ! A48   A(17,16,55)           111.1405         estimate D2E/DX2                !
 ! A49   A(16,17,18)           115.703          estimate D2E/DX2                !
 ! A50   A(16,17,31)           118.0537         estimate D2E/DX2                !
 ! A51   A(18,17,31)           126.1803         estimate D2E/DX2                !
 ! A52   A(17,18,19)           118.9586         estimate D2E/DX2                !
 ! A53   A(17,18,21)           120.3108         estimate D2E/DX2                !
 ! A54   A(19,18,21)           120.7126         estimate D2E/DX2                !
 ! A55   A(18,19,20)           121.3693         estimate D2E/DX2                !
 ! A56   A(18,19,24)           118.0044         estimate D2E/DX2                !
 ! A57   A(20,19,24)           120.5489         estimate D2E/DX2                !
 ! A58   A(8,20,19)            118.6006         estimate D2E/DX2                !
 ! A59   A(8,20,32)            119.422          estimate D2E/DX2                !
 ! A60   A(19,20,32)           121.9227         estimate D2E/DX2                !
 ! A61   A(18,21,22)           120.0731         estimate D2E/DX2                !
 ! A62   A(18,21,76)           119.4689         estimate D2E/DX2                !
 ! A63   A(22,21,76)           120.458          estimate D2E/DX2                !
 ! A64   A(21,22,23)           119.7495         estimate D2E/DX2                !
 ! A65   A(21,22,77)           119.9701         estimate D2E/DX2                !
 ! A66   A(23,22,77)           120.2802         estimate D2E/DX2                !
 ! A67   A(22,23,24)           120.257          estimate D2E/DX2                !
 ! A68   A(22,23,79)           119.9353         estimate D2E/DX2                !
 ! A69   A(24,23,79)           119.8071         estimate D2E/DX2                !
 ! A70   A(19,24,23)           121.1463         estimate D2E/DX2                !
 ! A71   A(19,24,80)           120.227          estimate D2E/DX2                !
 ! A72   A(23,24,80)           118.5825         estimate D2E/DX2                !
 ! A73   A(13,25,26)           120.078          estimate D2E/DX2                !
 ! A74   A(13,25,61)           119.4777         estimate D2E/DX2                !
 ! A75   A(26,25,61)           120.4442         estimate D2E/DX2                !
 ! A76   A(25,26,27)           119.7683         estimate D2E/DX2                !
 ! A77   A(25,26,62)           119.9653         estimate D2E/DX2                !
 ! A78   A(27,26,62)           120.2662         estimate D2E/DX2                !
 ! A79   A(26,27,28)           120.2243         estimate D2E/DX2                !
 ! A80   A(26,27,63)           119.9457         estimate D2E/DX2                !
 ! A81   A(28,27,63)           119.8295         estimate D2E/DX2                !
 ! A82   A(14,28,27)           121.1437         estimate D2E/DX2                !
 ! A83   A(14,28,64)           120.2415         estimate D2E/DX2                !
 ! A84   A(27,28,64)           118.5659         estimate D2E/DX2                !
 ! A85   A(12,29,84)           132.7543         estimate D2E/DX2                !
 ! A86   A(17,31,84)           132.8633         estimate D2E/DX2                !
 ! A87   A(20,32,85)           142.7028         estimate D2E/DX2                !
 ! A88   A(3,33,34)            113.5892         estimate D2E/DX2                !
 ! A89   A(3,33,35)            112.9234         estimate D2E/DX2                !
 ! A90   A(3,33,36)            106.5632         estimate D2E/DX2                !
 ! A91   A(34,33,35)           107.6675         estimate D2E/DX2                !
 ! A92   A(34,33,36)           107.8983         estimate D2E/DX2                !
 ! A93   A(35,33,36)           107.9571         estimate D2E/DX2                !
 ! A94   A(33,34,46)           121.0496         estimate D2E/DX2                !
 ! A95   A(33,34,47)           121.0967         estimate D2E/DX2                !
 ! A96   A(46,34,47)           117.5301         estimate D2E/DX2                !
 ! A97   A(33,35,37)           120.9914         estimate D2E/DX2                !
 ! A98   A(33,35,38)           121.1756         estimate D2E/DX2                !
 ! A99   A(37,35,38)           117.4848         estimate D2E/DX2                !
 ! A100  A(35,37,41)           123.8207         estimate D2E/DX2                !
 ! A101  A(35,37,56)           122.454          estimate D2E/DX2                !
 ! A102  A(41,37,56)           113.6999         estimate D2E/DX2                !
 ! A103  A(35,38,39)           118.7853         estimate D2E/DX2                !
 ! A104  A(35,38,59)           119.2648         estimate D2E/DX2                !
 ! A105  A(39,38,59)           121.8874         estimate D2E/DX2                !
 ! A106  A(38,39,40)           120.247          estimate D2E/DX2                !
 ! A107  A(38,39,42)           120.582          estimate D2E/DX2                !
 ! A108  A(40,39,42)           119.1566         estimate D2E/DX2                !
 ! A109  A(39,40,41)           120.1106         estimate D2E/DX2                !
 ! A110  A(39,40,45)           119.1515         estimate D2E/DX2                !
 ! A111  A(41,40,45)           120.7338         estimate D2E/DX2                !
 ! A112  A(37,41,40)           116.6056         estimate D2E/DX2                !
 ! A113  A(37,41,60)           119.5726         estimate D2E/DX2                !
 ! A114  A(40,41,60)           123.8138         estimate D2E/DX2                !
 ! A115  A(39,42,43)           121.0703         estimate D2E/DX2                !
 ! A116  A(39,42,69)           120.0645         estimate D2E/DX2                !
 ! A117  A(43,42,69)           118.8145         estimate D2E/DX2                !
 ! A118  A(42,43,44)           119.8033         estimate D2E/DX2                !
 ! A119  A(42,43,70)           120.0878         estimate D2E/DX2                !
 ! A120  A(44,43,70)           120.1088         estimate D2E/DX2                !
 ! A121  A(43,44,45)           119.662          estimate D2E/DX2                !
 ! A122  A(43,44,71)           120.2555         estimate D2E/DX2                !
 ! A123  A(45,44,71)           120.082          estimate D2E/DX2                !
 ! A124  A(40,45,44)           121.1351         estimate D2E/DX2                !
 ! A125  A(40,45,78)           120.2806         estimate D2E/DX2                !
 ! A126  A(44,45,78)           118.584          estimate D2E/DX2                !
 ! A127  A(34,46,50)           123.5162         estimate D2E/DX2                !
 ! A128  A(34,46,56)           122.577          estimate D2E/DX2                !
 ! A129  A(50,46,56)           113.8323         estimate D2E/DX2                !
 ! A130  A(34,47,48)           118.536          estimate D2E/DX2                !
 ! A131  A(34,47,57)           119.4033         estimate D2E/DX2                !
 ! A132  A(48,47,57)           122.0295         estimate D2E/DX2                !
 ! A133  A(47,48,49)           120.0285         estimate D2E/DX2                !
 ! A134  A(47,48,51)           120.7541         estimate D2E/DX2                !
 ! A135  A(49,48,51)           119.2078         estimate D2E/DX2                !
 ! A136  A(48,49,50)           119.8825         estimate D2E/DX2                !
 ! A137  A(48,49,54)           119.2764         estimate D2E/DX2                !
 ! A138  A(50,49,54)           120.8287         estimate D2E/DX2                !
 ! A139  A(46,50,49)           116.3833         estimate D2E/DX2                !
 ! A140  A(46,50,58)           119.8567         estimate D2E/DX2                !
 ! A141  A(49,50,58)           123.7599         estimate D2E/DX2                !
 ! A142  A(48,51,52)           120.9464         estimate D2E/DX2                !
 ! A143  A(48,51,65)           120.0764         estimate D2E/DX2                !
 ! A144  A(52,51,65)           118.9263         estimate D2E/DX2                !
 ! A145  A(51,52,53)           119.8746         estimate D2E/DX2                !
 ! A146  A(51,52,66)           120.0645         estimate D2E/DX2                !
 ! A147  A(53,52,66)           120.0599         estimate D2E/DX2                !
 ! A148  A(52,53,54)           119.7046         estimate D2E/DX2                !
 ! A149  A(52,53,67)           120.2302         estimate D2E/DX2                !
 ! A150  A(54,53,67)           120.0645         estimate D2E/DX2                !
 ! A151  A(49,54,53)           120.9883         estimate D2E/DX2                !
 ! A152  A(49,54,68)           120.2812         estimate D2E/DX2                !
 ! A153  A(53,54,68)           118.7152         estimate D2E/DX2                !
 ! A154  A(11,55,16)           115.3946         estimate D2E/DX2                !
 ! A155  A(37,56,46)           118.3062         estimate D2E/DX2                !
 ! A156  A(47,57,86)           144.6856         estimate D2E/DX2                !
 ! A157  A(50,58,82)           153.3445         estimate D2E/DX2                !
 ! A158  A(38,59,81)           144.0615         estimate D2E/DX2                !
 ! A159  A(41,60,83)           156.6677         estimate D2E/DX2                !
 ! A160  A(29,84,31)           127.1455         estimate D2E/DX2                !
 ! D1    D(6,1,2,3)              0.2843         estimate D2E/DX2                !
 ! D2    D(6,1,2,73)          -179.8383         estimate D2E/DX2                !
 ! D3    D(72,1,2,3)           179.7974         estimate D2E/DX2                !
 ! D4    D(72,1,2,73)           -0.3253         estimate D2E/DX2                !
 ! D5    D(2,1,6,5)             -0.2305         estimate D2E/DX2                !
 ! D6    D(2,1,6,7)            179.6715         estimate D2E/DX2                !
 ! D7    D(72,1,6,5)          -179.733          estimate D2E/DX2                !
 ! D8    D(72,1,6,7)             0.169          estimate D2E/DX2                !
 ! D9    D(1,2,3,4)             -0.0518         estimate D2E/DX2                !
 ! D10   D(1,2,3,33)          -179.6393         estimate D2E/DX2                !
 ! D11   D(73,2,3,4)          -179.9265         estimate D2E/DX2                !
 ! D12   D(73,2,3,33)            0.4859         estimate D2E/DX2                !
 ! D13   D(2,3,4,5)             -0.2229         estimate D2E/DX2                !
 ! D14   D(2,3,4,74)          -179.9438         estimate D2E/DX2                !
 ! D15   D(33,3,4,5)           179.379          estimate D2E/DX2                !
 ! D16   D(33,3,4,74)           -0.342          estimate D2E/DX2                !
 ! D17   D(2,3,33,34)          -51.1839         estimate D2E/DX2                !
 ! D18   D(2,3,33,35)           71.7878         estimate D2E/DX2                !
 ! D19   D(2,3,33,36)         -169.8524         estimate D2E/DX2                !
 ! D20   D(4,3,33,34)          129.2389         estimate D2E/DX2                !
 ! D21   D(4,3,33,35)         -107.7893         estimate D2E/DX2                !
 ! D22   D(4,3,33,36)           10.5705         estimate D2E/DX2                !
 ! D23   D(3,4,5,6)              0.2765         estimate D2E/DX2                !
 ! D24   D(3,4,5,75)          -179.5034         estimate D2E/DX2                !
 ! D25   D(74,4,5,6)          -179.9991         estimate D2E/DX2                !
 ! D26   D(74,4,5,75)            0.221          estimate D2E/DX2                !
 ! D27   D(4,5,6,1)             -0.0442         estimate D2E/DX2                !
 ! D28   D(4,5,6,7)           -179.9516         estimate D2E/DX2                !
 ! D29   D(75,5,6,1)           179.7337         estimate D2E/DX2                !
 ! D30   D(75,5,6,7)            -0.1738         estimate D2E/DX2                !
 ! D31   D(1,6,7,8)            -14.4751         estimate D2E/DX2                !
 ! D32   D(1,6,7,9)            106.526          estimate D2E/DX2                !
 ! D33   D(1,6,7,10)          -134.9354         estimate D2E/DX2                !
 ! D34   D(5,6,7,8)            165.4254         estimate D2E/DX2                !
 ! D35   D(5,6,7,9)            -73.5735         estimate D2E/DX2                !
 ! D36   D(5,6,7,10)            44.9651         estimate D2E/DX2                !
 ! D37   D(6,7,8,16)            88.7077         estimate D2E/DX2                !
 ! D38   D(6,7,8,20)          -100.2012         estimate D2E/DX2                !
 ! D39   D(9,7,8,16)           -35.3707         estimate D2E/DX2                !
 ! D40   D(9,7,8,20)           135.7204         estimate D2E/DX2                !
 ! D41   D(10,7,8,16)         -151.4667         estimate D2E/DX2                !
 ! D42   D(10,7,8,20)           19.6244         estimate D2E/DX2                !
 ! D43   D(6,7,9,11)           -90.1616         estimate D2E/DX2                !
 ! D44   D(6,7,9,15)            98.4449         estimate D2E/DX2                !
 ! D45   D(8,7,9,11)            35.8067         estimate D2E/DX2                !
 ! D46   D(8,7,9,15)          -135.5867         estimate D2E/DX2                !
 ! D47   D(10,7,9,11)          151.9466         estimate D2E/DX2                !
 ! D48   D(10,7,9,15)          -19.4469         estimate D2E/DX2                !
 ! D49   D(7,8,16,17)          170.617          estimate D2E/DX2                !
 ! D50   D(7,8,16,55)            2.5608         estimate D2E/DX2                !
 ! D51   D(20,8,16,17)          -1.3328         estimate D2E/DX2                !
 ! D52   D(20,8,16,55)        -169.3891         estimate D2E/DX2                !
 ! D53   D(7,8,20,19)          175.7596         estimate D2E/DX2                !
 ! D54   D(7,8,20,32)           -6.8775         estimate D2E/DX2                !
 ! D55   D(16,8,20,19)         -12.9996         estimate D2E/DX2                !
 ! D56   D(16,8,20,32)         164.3633         estimate D2E/DX2                !
 ! D57   D(7,9,11,12)         -170.5871         estimate D2E/DX2                !
 ! D58   D(7,9,11,55)           -3.4118         estimate D2E/DX2                !
 ! D59   D(15,9,11,12)           1.637          estimate D2E/DX2                !
 ! D60   D(15,9,11,55)         168.8122         estimate D2E/DX2                !
 ! D61   D(7,9,15,14)         -175.7775         estimate D2E/DX2                !
 ! D62   D(7,9,15,30)            6.7214         estimate D2E/DX2                !
 ! D63   D(11,9,15,14)          12.7009         estimate D2E/DX2                !
 ! D64   D(11,9,15,30)        -164.8001         estimate D2E/DX2                !
 ! D65   D(9,11,12,13)         -12.9088         estimate D2E/DX2                !
 ! D66   D(9,11,12,29)         164.0746         estimate D2E/DX2                !
 ! D67   D(55,11,12,13)        178.8454         estimate D2E/DX2                !
 ! D68   D(55,11,12,29)         -4.1713         estimate D2E/DX2                !
 ! D69   D(9,11,55,16)         -33.9567         estimate D2E/DX2                !
 ! D70   D(12,11,55,16)        135.0332         estimate D2E/DX2                !
 ! D71   D(11,12,13,14)          9.1726         estimate D2E/DX2                !
 ! D72   D(11,12,13,25)       -172.3266         estimate D2E/DX2                !
 ! D73   D(29,12,13,14)       -167.5357         estimate D2E/DX2                !
 ! D74   D(29,12,13,25)         10.9652         estimate D2E/DX2                !
 ! D75   D(11,12,29,84)        -14.7785         estimate D2E/DX2                !
 ! D76   D(13,12,29,84)        161.8595         estimate D2E/DX2                !
 ! D77   D(12,13,14,15)          4.4557         estimate D2E/DX2                !
 ! D78   D(12,13,14,28)       -178.7021         estimate D2E/DX2                !
 ! D79   D(25,13,14,15)       -174.0397         estimate D2E/DX2                !
 ! D80   D(25,13,14,28)          2.8025         estimate D2E/DX2                !
 ! D81   D(12,13,25,26)        179.546          estimate D2E/DX2                !
 ! D82   D(12,13,25,61)         -0.3621         estimate D2E/DX2                !
 ! D83   D(14,13,25,26)         -1.9798         estimate D2E/DX2                !
 ! D84   D(14,13,25,61)        178.1121         estimate D2E/DX2                !
 ! D85   D(13,14,15,9)         -16.0989         estimate D2E/DX2                !
 ! D86   D(13,14,15,30)        161.3396         estimate D2E/DX2                !
 ! D87   D(28,14,15,9)         167.1386         estimate D2E/DX2                !
 ! D88   D(28,14,15,30)        -15.423          estimate D2E/DX2                !
 ! D89   D(13,14,28,27)         -1.507          estimate D2E/DX2                !
 ! D90   D(13,14,28,64)        175.9109         estimate D2E/DX2                !
 ! D91   D(15,14,28,27)        175.3605         estimate D2E/DX2                !
 ! D92   D(15,14,28,64)         -7.2216         estimate D2E/DX2                !
 ! D93   D(8,16,17,18)          12.8103         estimate D2E/DX2                !
 ! D94   D(8,16,17,31)        -164.4837         estimate D2E/DX2                !
 ! D95   D(55,16,17,18)       -178.1283         estimate D2E/DX2                !
 ! D96   D(55,16,17,31)          4.5776         estimate D2E/DX2                !
 ! D97   D(8,16,55,11)          34.5077         estimate D2E/DX2                !
 ! D98   D(17,16,55,11)       -135.2484         estimate D2E/DX2                !
 ! D99   D(16,17,18,19)         -9.2768         estimate D2E/DX2                !
 ! D100  D(16,17,18,21)        172.2554         estimate D2E/DX2                !
 ! D101  D(31,17,18,19)        167.7645         estimate D2E/DX2                !
 ! D102  D(31,17,18,21)        -10.7033         estimate D2E/DX2                !
 ! D103  D(16,17,31,84)         14.3368         estimate D2E/DX2                !
 ! D104  D(18,17,31,84)       -162.6422         estimate D2E/DX2                !
 ! D105  D(17,18,19,20)         -4.3726         estimate D2E/DX2                !
 ! D106  D(17,18,19,24)        178.8114         estimate D2E/DX2                !
 ! D107  D(21,18,19,20)        174.0889         estimate D2E/DX2                !
 ! D108  D(21,18,19,24)         -2.7272         estimate D2E/DX2                !
 ! D109  D(17,18,21,22)       -179.5711         estimate D2E/DX2                !
 ! D110  D(17,18,21,76)          0.3109         estimate D2E/DX2                !
 ! D111  D(19,18,21,22)          1.9882         estimate D2E/DX2                !
 ! D112  D(19,18,21,76)       -178.1298         estimate D2E/DX2                !
 ! D113  D(18,19,20,8)          16.2259         estimate D2E/DX2                !
 ! D114  D(18,19,20,32)       -161.0678         estimate D2E/DX2                !
 ! D115  D(24,19,20,8)        -167.0385         estimate D2E/DX2                !
 ! D116  D(24,19,20,32)         15.6679         estimate D2E/DX2                !
 ! D117  D(18,19,24,23)          1.4158         estimate D2E/DX2                !
 ! D118  D(18,19,24,80)       -176.1304         estimate D2E/DX2                !
 ! D119  D(20,19,24,23)       -175.4275         estimate D2E/DX2                !
 ! D120  D(20,19,24,80)          7.0263         estimate D2E/DX2                !
 ! D121  D(8,20,32,85)        -152.9692         estimate D2E/DX2                !
 ! D122  D(19,20,32,85)         24.3028         estimate D2E/DX2                !
 ! D123  D(18,21,22,23)          0.1191         estimate D2E/DX2                !
 ! D124  D(18,21,22,77)        179.9631         estimate D2E/DX2                !
 ! D125  D(76,21,22,23)       -179.7618         estimate D2E/DX2                !
 ! D126  D(76,21,22,77)          0.0823         estimate D2E/DX2                !
 ! D127  D(21,22,23,24)         -1.432          estimate D2E/DX2                !
 ! D128  D(21,22,23,79)        178.8298         estimate D2E/DX2                !
 ! D129  D(77,22,23,24)        178.7245         estimate D2E/DX2                !
 ! D130  D(77,22,23,79)         -1.0137         estimate D2E/DX2                !
 ! D131  D(22,23,24,19)          0.6393         estimate D2E/DX2                !
 ! D132  D(22,23,24,80)        178.2249         estimate D2E/DX2                !
 ! D133  D(79,23,24,19)       -179.6221         estimate D2E/DX2                !
 ! D134  D(79,23,24,80)         -2.0365         estimate D2E/DX2                !
 ! D135  D(13,25,26,27)         -0.197          estimate D2E/DX2                !
 ! D136  D(13,25,26,62)        179.9774         estimate D2E/DX2                !
 ! D137  D(61,25,26,27)        179.7102         estimate D2E/DX2                !
 ! D138  D(61,25,26,62)         -0.1154         estimate D2E/DX2                !
 ! D139  D(25,26,27,28)          1.4943         estimate D2E/DX2                !
 ! D140  D(25,26,27,63)       -178.7652         estimate D2E/DX2                !
 ! D141  D(62,26,27,28)       -178.6807         estimate D2E/DX2                !
 ! D142  D(62,26,27,63)          1.0598         estimate D2E/DX2                !
 ! D143  D(26,27,28,14)         -0.6157         estimate D2E/DX2                !
 ! D144  D(26,27,28,64)       -178.0758         estimate D2E/DX2                !
 ! D145  D(63,27,28,14)        179.6435         estimate D2E/DX2                !
 ! D146  D(63,27,28,64)          2.1834         estimate D2E/DX2                !
 ! D147  D(12,29,84,31)        -11.4804         estimate D2E/DX2                !
 ! D148  D(17,31,84,29)         11.6984         estimate D2E/DX2                !
 ! D149  D(3,33,34,46)         101.7747         estimate D2E/DX2                !
 ! D150  D(3,33,34,47)         -84.9194         estimate D2E/DX2                !
 ! D151  D(35,33,34,46)        -24.0381         estimate D2E/DX2                !
 ! D152  D(35,33,34,47)        149.2679         estimate D2E/DX2                !
 ! D153  D(36,33,34,46)       -140.3265         estimate D2E/DX2                !
 ! D154  D(36,33,34,47)         32.9795         estimate D2E/DX2                !
 ! D155  D(3,33,35,37)        -101.2487         estimate D2E/DX2                !
 ! D156  D(3,33,35,38)          85.6972         estimate D2E/DX2                !
 ! D157  D(34,33,35,37)         24.9578         estimate D2E/DX2                !
 ! D158  D(34,33,35,38)       -148.0963         estimate D2E/DX2                !
 ! D159  D(36,33,35,37)        141.2077         estimate D2E/DX2                !
 ! D160  D(36,33,35,38)        -31.8464         estimate D2E/DX2                !
 ! D161  D(33,34,46,50)       -177.7909         estimate D2E/DX2                !
 ! D162  D(33,34,46,56)          5.5416         estimate D2E/DX2                !
 ! D163  D(47,34,46,50)          8.6721         estimate D2E/DX2                !
 ! D164  D(47,34,46,56)       -167.9954         estimate D2E/DX2                !
 ! D165  D(33,34,47,48)        164.6546         estimate D2E/DX2                !
 ! D166  D(33,34,47,57)        -17.336          estimate D2E/DX2                !
 ! D167  D(46,34,47,48)        -21.8116         estimate D2E/DX2                !
 ! D168  D(46,34,47,57)        156.1977         estimate D2E/DX2                !
 ! D169  D(33,35,37,41)        174.5183         estimate D2E/DX2                !
 ! D170  D(33,35,37,56)         -7.4312         estimate D2E/DX2                !
 ! D171  D(38,35,37,41)        -12.1794         estimate D2E/DX2                !
 ! D172  D(38,35,37,56)        165.871          estimate D2E/DX2                !
 ! D173  D(33,35,38,39)       -166.2128         estimate D2E/DX2                !
 ! D174  D(33,35,38,59)         16.6075         estimate D2E/DX2                !
 ! D175  D(37,35,38,39)         20.498          estimate D2E/DX2                !
 ! D176  D(37,35,38,59)       -156.6817         estimate D2E/DX2                !
 ! D177  D(35,37,41,40)         -1.0733         estimate D2E/DX2                !
 ! D178  D(35,37,41,60)        179.9125         estimate D2E/DX2                !
 ! D179  D(56,37,41,40)       -179.2767         estimate D2E/DX2                !
 ! D180  D(56,37,41,60)          1.709          estimate D2E/DX2                !
 ! D181  D(35,37,56,46)        -14.617          estimate D2E/DX2                !
 ! D182  D(41,37,56,46)        163.6142         estimate D2E/DX2                !
 ! D183  D(35,38,39,40)        -15.8247         estimate D2E/DX2                !
 ! D184  D(35,38,39,42)        165.5623         estimate D2E/DX2                !
 ! D185  D(59,38,39,40)        161.2775         estimate D2E/DX2                !
 ! D186  D(59,38,39,42)        -17.3355         estimate D2E/DX2                !
 ! D187  D(35,38,59,81)        147.5579         estimate D2E/DX2                !
 ! D188  D(39,38,59,81)        -29.5309         estimate D2E/DX2                !
 ! D189  D(38,39,40,41)          2.2899         estimate D2E/DX2                !
 ! D190  D(38,39,40,45)       -176.9884         estimate D2E/DX2                !
 ! D191  D(42,39,40,41)       -179.0774         estimate D2E/DX2                !
 ! D192  D(42,39,40,45)          1.6443         estimate D2E/DX2                !
 ! D193  D(38,39,42,43)        177.4281         estimate D2E/DX2                !
 ! D194  D(38,39,42,69)         -5.1933         estimate D2E/DX2                !
 ! D195  D(40,39,42,43)         -1.1999         estimate D2E/DX2                !
 ! D196  D(40,39,42,69)        176.1787         estimate D2E/DX2                !
 ! D197  D(39,40,41,37)          6.2506         estimate D2E/DX2                !
 ! D198  D(39,40,41,60)       -174.7812         estimate D2E/DX2                !
 ! D199  D(45,40,41,37)       -174.4827         estimate D2E/DX2                !
 ! D200  D(45,40,41,60)          4.4855         estimate D2E/DX2                !
 ! D201  D(39,40,45,44)         -0.8496         estimate D2E/DX2                !
 ! D202  D(39,40,45,78)        179.3639         estimate D2E/DX2                !
 ! D203  D(41,40,45,44)        179.8768         estimate D2E/DX2                !
 ! D204  D(41,40,45,78)          0.0902         estimate D2E/DX2                !
 ! D205  D(37,41,60,83)       -175.2282         estimate D2E/DX2                !
 ! D206  D(40,41,60,83)          5.8326         estimate D2E/DX2                !
 ! D207  D(39,42,43,44)         -0.074          estimate D2E/DX2                !
 ! D208  D(39,42,43,70)        179.8106         estimate D2E/DX2                !
 ! D209  D(69,42,43,44)       -177.4847         estimate D2E/DX2                !
 ! D210  D(69,42,43,70)          2.3999         estimate D2E/DX2                !
 ! D211  D(42,43,44,45)          0.8933         estimate D2E/DX2                !
 ! D212  D(42,43,44,71)       -179.3658         estimate D2E/DX2                !
 ! D213  D(70,43,44,45)       -178.9914         estimate D2E/DX2                !
 ! D214  D(70,43,44,71)          0.7496         estimate D2E/DX2                !
 ! D215  D(43,44,45,40)         -0.4254         estimate D2E/DX2                !
 ! D216  D(43,44,45,78)        179.3647         estimate D2E/DX2                !
 ! D217  D(71,44,45,40)        179.8332         estimate D2E/DX2                !
 ! D218  D(71,44,45,78)         -0.3767         estimate D2E/DX2                !
 ! D219  D(34,46,50,49)          8.4066         estimate D2E/DX2                !
 ! D220  D(34,46,50,58)       -171.706          estimate D2E/DX2                !
 ! D221  D(56,46,50,49)       -174.663          estimate D2E/DX2                !
 ! D222  D(56,46,50,58)          5.2243         estimate D2E/DX2                !
 ! D223  D(34,46,56,37)         15.6147         estimate D2E/DX2                !
 ! D224  D(50,46,56,37)       -161.3483         estimate D2E/DX2                !
 ! D225  D(34,47,48,49)         17.8917         estimate D2E/DX2                !
 ! D226  D(34,47,48,51)       -163.2399         estimate D2E/DX2                !
 ! D227  D(57,47,48,49)       -160.0626         estimate D2E/DX2                !
 ! D228  D(57,47,48,51)         18.8058         estimate D2E/DX2                !
 ! D229  D(34,47,57,86)       -147.2331         estimate D2E/DX2                !
 ! D230  D(48,47,57,86)         30.7041         estimate D2E/DX2                !
 ! D231  D(47,48,49,50)         -0.3638         estimate D2E/DX2                !
 ! D232  D(47,48,49,54)        178.3638         estimate D2E/DX2                !
 ! D233  D(51,48,49,50)       -179.2497         estimate D2E/DX2                !
 ! D234  D(51,48,49,54)         -0.5221         estimate D2E/DX2                !
 ! D235  D(47,48,51,52)       -178.5193         estimate D2E/DX2                !
 ! D236  D(47,48,51,65)          4.1032         estimate D2E/DX2                !
 ! D237  D(49,48,51,52)          0.3583         estimate D2E/DX2                !
 ! D238  D(49,48,51,65)       -177.0193         estimate D2E/DX2                !
 ! D239  D(48,49,50,46)        -12.5368         estimate D2E/DX2                !
 ! D240  D(48,49,50,58)        167.5807         estimate D2E/DX2                !
 ! D241  D(54,49,50,46)        168.7557         estimate D2E/DX2                !
 ! D242  D(54,49,50,58)        -11.1268         estimate D2E/DX2                !
 ! D243  D(48,49,54,53)          0.3341         estimate D2E/DX2                !
 ! D244  D(48,49,54,68)        178.8918         estimate D2E/DX2                !
 ! D245  D(50,49,54,53)        179.0494         estimate D2E/DX2                !
 ! D246  D(50,49,54,68)         -2.393          estimate D2E/DX2                !
 ! D247  D(46,50,58,82)        163.2542         estimate D2E/DX2                !
 ! D248  D(49,50,58,82)        -16.8671         estimate D2E/DX2                !
 ! D249  D(48,51,52,53)          0.0033         estimate D2E/DX2                !
 ! D250  D(48,51,52,66)       -179.6202         estimate D2E/DX2                !
 ! D251  D(65,51,52,53)        177.4105         estimate D2E/DX2                !
 ! D252  D(65,51,52,66)         -2.213          estimate D2E/DX2                !
 ! D253  D(51,52,53,54)         -0.1992         estimate D2E/DX2                !
 ! D254  D(51,52,53,67)       -179.9105         estimate D2E/DX2                !
 ! D255  D(66,52,53,54)        179.4244         estimate D2E/DX2                !
 ! D256  D(66,52,53,67)         -0.2869         estimate D2E/DX2                !
 ! D257  D(52,53,54,49)          0.0277         estimate D2E/DX2                !
 ! D258  D(52,53,54,68)       -178.552          estimate D2E/DX2                !
 ! D259  D(67,53,54,49)        179.7394         estimate D2E/DX2                !
 ! D260  D(67,53,54,68)          1.1597         estimate D2E/DX2                !
 --------------------------------------------------------------------------------
 Trust Radius=3.00D-01 FncErr=1.00D-07 GrdErr=1.00D-06 EigMax=2.50D+02 EigMin=1.00D-04
 Number of steps in this run=    516 maximum allowed number of steps=    516.
 GradGradGradGradGradGradGradGradGradGradGradGradGradGradGradGradGradGrad

 Leave Link  103 at Thu Oct 26 23:14:03 2023, MaxMem=  6710886400 cpu:               4.8 elap:               0.1
 (Enter /soft/gaussian/16-c.01/g16/l202.exe)
 Stoichiometry    C48H22Li6O10(6+)
 Framework group  C1[X(C48H22Li6O10)]
 Deg. of freedom   252
 Full point group                 C1      NOp   1
 Largest Abelian subgroup         C1      NOp   1
 Largest concise Abelian subgroup C1      NOp   1
                         Standard orientation:                         
 ---------------------------------------------------------------------
 Center     Atomic      Atomic             Coordinates (Angstroms)
 Number     Number       Type             X           Y           Z
 ---------------------------------------------------------------------
      1          6           0       -0.486839   -0.545912    0.161558
      2          6           0        0.864741   -0.160058    0.159921
      3          6           0        1.484918    0.325689   -1.001903
      4          6           0        0.696363    0.408407   -2.163356
      5          6           0       -0.647968    0.018766   -2.162810
      6          6           0       -1.271984   -0.467472   -0.999575
      7          6           0       -2.774463   -0.885391   -1.070558
      8          6           0       -3.271193   -1.719354    0.122185
      9          6           0       -3.708931    0.342773   -1.153737
     10          1           0       -2.903042   -1.476835   -1.981684
     11          6           0       -4.156954    0.871783    0.006007
     12          6           0       -5.213158    1.923379    0.160116
     13          6           0       -5.595877    2.619749   -1.061450
     14          6           0       -5.109527    2.136708   -2.312665
     15          6           0       -4.310330    0.894179   -2.399852
     16          6           0       -3.756501   -1.058562    1.196449
     17          6           0       -4.466180   -1.658767    2.372960
     18          6           0       -4.388895   -3.108610    2.484801
     19          6           0       -3.841086   -3.857031    1.400290
     20          6           0       -3.441747   -3.200514    0.134926
     21          6           0       -4.875274   -3.755917    3.626376
     22          6           0       -4.790072   -5.153135    3.732871
     23          6           0       -4.216311   -5.893268    2.697109
     24          6           0       -3.752872   -5.248445    1.539403
     25          6           0       -6.452318    3.724763   -1.006445
     26          6           0       -6.809858    4.397431   -2.186029
     27          6           0       -6.304420    3.962090   -3.412812
     28          6           0       -5.466842    2.837207   -3.472886
     29          8           0       -5.716950    2.083669    1.277451
     30          8           0       -4.167737    0.272701   -3.481655
     31          8           0       -5.096689   -0.901841    3.119672
     32          8           0       -3.293432   -3.846793   -0.929284
     33          6           0        2.980620    0.756342   -1.050615
     34          6           0        3.369804    1.736765    0.051413
     35          6           0        3.943642   -0.427991   -0.979051
     36          1           0        3.130310    1.254992   -2.012359
     37          6           0        4.575637   -0.747633    0.182260
     38          6           0        4.339355   -1.174140   -2.204141
     39          6           0        5.011557   -2.475629   -2.055472
     40          6           0        5.574078   -2.852762   -0.804704
     41          6           0        5.443453   -1.968289    0.357042
     42          6           0        5.131157   -3.343672   -3.146102
     43          6           0        5.816498   -4.563186   -3.029628
     44          6           0        6.391862   -4.921765   -1.809763
     45          6           0        6.264077   -4.068651   -0.705252
     46          6           0        4.045237    1.319018    1.155685
     47          6           0        3.155529    3.201184   -0.111232
     48          6           0        3.222118    4.058741    1.083682
     49          6           0        3.845948    3.580920    2.268428
     50          6           0        4.415468    2.230170    2.300372
     51          6           0        2.697443    5.355527    1.063735
     52          6           0        2.786171    6.187533    2.190831
     53          6           0        3.405334    5.721673    3.351945
     54          6           0        3.931145    4.422820    3.385441
     55          8           0       -3.853492    0.300078    1.204998
     56          8           0        4.508094    0.042023    1.295064
     57          8           0        2.962839    3.670781   -1.255561
     58          8           0        5.163802    1.817581    3.202174
     59          8           0        4.140874   -0.656381   -3.327360
     60          8           0        5.985492   -2.183448    1.454497
     61          1           0       -6.835149    4.056752   -0.046172
     62          1           0       -7.475069    5.254739   -2.141250
     63          1           0       -6.562974    4.492337   -4.324532
     64          1           0       -5.063322    2.540931   -4.436991
     65          1           0        2.175639    5.717678    0.183681
     66          1           0        2.368478    7.189621    2.161607
     67          1           0        3.475897    6.359968    4.227784
     68          1           0        4.387378    4.069113    4.303012
     69          1           0        4.654556   -3.099534   -4.090174
     70          1           0        5.897037   -5.226447   -3.885902
     71          1           0        6.932559   -5.858757   -1.714188
     72          1           0       -0.912828   -0.917385    1.088192
     73          1           0        1.424798   -0.244870    1.087884
     74          1           0        1.131334    0.777296   -3.088214
     75          1           0       -1.214597    0.093401   -3.087241
     76          1           0       -5.315671   -3.168791    4.426509
     77          1           0       -5.167468   -5.653644    4.619700
     78          1           0        6.708677   -4.369132    0.236050
     79          1           0       -4.131600   -6.972312    2.784561
     80          1           0       -3.284844   -5.846943    0.763317
     81          3           0        4.804840   -0.527344   -5.089431
     82          3           0        6.329158    2.056108    4.680480
     83          3           0        7.098328   -3.069922    2.691331
     84          3           0       -5.708510    0.981107    2.933729
     85          3           0       -3.818012   -5.413197   -1.802425
     86          3           0        3.234913    5.165277   -2.369739
 ---------------------------------------------------------------------
 Rotational constants (GHZ):           0.0453407           0.0259624           0.0218770
 Leave Link  202 at Thu Oct 26 23:14:03 2023, MaxMem=  6710886400 cpu:               1.8 elap:               0.1
 (Enter /soft/gaussian/16-c.01/g16/l301.exe)
 Standard basis: 6-31+G(d,p) (6D, 7F)
 Ernie: Thresh=  0.10000D-02 Tol=  0.10000D-05 Strict=F.
 There are  1326 symmetry adapted cartesian basis functions of A   symmetry.
 There are  1326 symmetry adapted basis functions of A   symmetry.
  1326 basis functions,  2202 primitive gaussians,  1326 cartesian basis functions
   201 alpha electrons      201 beta electrons
       nuclear repulsion energy      7805.3984946526 Hartrees.
 IExCor=  402 DFT=T Ex+Corr=B3LYP ExCW=0 ScaHFX=  0.200000
 ScaDFX=  0.800000  0.720000  1.000000  0.810000 ScalE2=  1.000000  1.000000
 IRadAn=      5 IRanWt=     -1 IRanGd=            0 ICorTp=0 IEmpDi=131
 NAtoms=   86 NActive=   86 NUniq=   86 SFac= 1.00D+00 NAtFMM=   60 NAOKFM=T Big=T
 Integral buffers will be    131072 words long.
 Raffenetti 2 integral format.
 Two-electron integral symmetry is turned on.
 R6Disp:  Grimme-D3 Dispersion energy=       -0.1067743061 Hartrees.
 Nuclear repulsion after empirical dispersion term =     7805.2917203465 Hartrees.
 Leave Link  301 at Thu Oct 26 23:14:04 2023, MaxMem=  6710886400 cpu:               7.6 elap:               0.2
 (Enter /soft/gaussian/16-c.01/g16/l302.exe)
 NPDir=0 NMtPBC=     1 NCelOv=     1 NCel=       1 NClECP=     1 NCelD=      1
         NCelK=      1 NCelE2=     1 NClLst=     1 CellRange=     0.0.
 One-electron integrals computed using PRISM.
 One-electron integral symmetry used in STVInt
 NBasis=  1326 RedAO= T EigKep=  1.10D-06  NBF=  1326
 NBsUse=  1302 1.00D-06 EigRej=  9.79D-07 NBFU=  1302
 Precomputing XC quadrature grid using
 IXCGrd= 4 IRadAn=           5 IRanWt=          -1 IRanGd=           0 AccXCQ= 0.00D+00.
 Generated NRdTot=       0 NPtTot=           0 NUsed=           0 NTot=          32
 NSgBfM=  1275  1263  1275  1275  1275 MxSgAt=    86 MxSgA2=    86.
 Leave Link  302 at Thu Oct 26 23:14:15 2023, MaxMem=  6710886400 cpu:             724.3 elap:              11.4
 (Enter /soft/gaussian/16-c.01/g16/l303.exe)
 DipDrv:  MaxL=1.
 Leave Link  303 at Thu Oct 26 23:14:16 2023, MaxMem=  6710886400 cpu:              46.1 elap:               1.0
 (Enter /soft/gaussian/16-c.01/g16/l401.exe)
 ExpMin= 7.40D-03 ExpMax= 5.48D+03 ExpMxC= 8.25D+02 IAcc=3 IRadAn=         5 AccDes= 0.00D+00
 Harris functional with IExCor=  402 and IRadAn=       5 diagonalized for initial guess.
 HarFok:  IExCor=  402 AccDes= 0.00D+00 IRadAn=         5 IDoV= 1 UseB2=F ITyADJ=14
 ICtDFT=  3500011 ScaDFX=  1.000000  1.000000  1.000000  1.000000
 FoFCou: FMM=F IPFlag=           0 FMFlag=      100000 FMFlg1=        2001
         NFxFlg=           0 DoJE=T BraDBF=F KetDBF=T FulRan=T
         wScrn=  0.000000 ICntrl=       500 IOpCl=  0 I1Cent=   200000004 NGrid=           0
         NMat0=    1 NMatS0=      1 NMatT0=    0 NMatD0=    1 NMtDS0=    0 NMtDT0=    0
 Petite list used in FoFCou.
 Harris En= -2639.05393241975    
 JPrj=0 DoOrth=F DoCkMO=F.
 Leave Link  401 at Thu Oct 26 23:14:33 2023, MaxMem=  6710886400 cpu:            1077.1 elap:              16.9
 (Enter /soft/gaussian/16-c.01/g16/l502.exe)
 Integral symmetry usage will be decided dynamically.
 Closed shell SCF:
 Using DIIS extrapolation, IDIIS=    10.
 NGot=  6710886400 LenX=  6707270506 LenY=  6705510904
 Requested convergence on RMS density matrix=1.00D-08 within 128 cycles.
 Requested convergence on MAX density matrix=1.00D-06.
 Requested convergence on             energy=1.00D-06.
 Level shift goal  0.100 maximum shift  0.100.
 No special actions if energy rises.
 Dynamic level shift is on during FON iterations.
 Fock matrices will be formed incrementally for  20 cycles.

 Cycle   1  Pass 1  IDiag  1:
 FoFJK:  IHMeth= 1 ICntrl=       0 DoSepK=F KAlg= 0 I1Cent=           0 FoldK=F
 IRaf= 780000000 NMat=       1 IRICut=       1 DoRegI=T DoRafI=F ISym2E= 0 IDoP0=0 IntGTp=1.
 FoFCou: FMM=T IPFlag=           0 FMFlag=      100000 FMFlg1=        2001
         NFxFlg=           0 DoJE=F BraDBF=F KetDBF=F FulRan=T
         wScrn=  0.000000 ICntrl=         0 IOpCl=  0 I1Cent=           0 NGrid=           0
         NMat0=    1 NMatS0=      1 NMatT0=    0 NMatD0=    1 NMtDS0=    0 NMtDT0=    0
 Symmetry not used in FoFCou.
 FMM levels:  10  Number of levels for PrismC:   9
 E= -2636.96758026735    
 DIIS: error= 1.44D-02 at cycle   1 NSaved=   1.
 NSaved= 1 IEnMin= 1 EnMin= -2636.96758026735     IErMin= 1 ErrMin= 1.44D-02
 ErrMax= 1.44D-02  0.00D+00 EMaxC= 1.00D+00 BMatC= 1.27D+00 BMatP= 1.27D+00
 IDIUse=1 WtCom= 1.00D+00 WtEn= 0.00D+00
 Coeff-Com:  0.100D+01
 Coeff:      0.100D+01
 Gap=     0.142 Goal=     0.100 Shift=    0.000
 T= 1056. Gap= 0.013 NK=0 IS=    1 IE= 1302 IFin=  208
          NO(<0.9)=   1  NV(>0.1)=   0    200.82e < EF      0.18e >EF  Err=8.5D-14
 GapD=    0.142 DampG=1.000 DampE=0.500 DampFc=0.5000 IDamp=-1.
 Damping current iteration by 5.00D-01
 RMSDP=7.59D-02 MaxDP=7.92D+00              OVMax= 9.02D-01

 Cycle   2  Pass 1  IDiag  1:
 RMSU=  3.36D-02    CP:  1.25D+00
 E= -2635.64450812881     Delta-E=        1.323072138543 Rises=F Damp=T
 DIIS: error= 8.62D-03 at cycle   2 NSaved=   2.
 NSaved= 2 IEnMin= 1 EnMin= -2636.96758026735     IErMin= 2 ErrMin= 8.62D-03
 ErrMax= 8.62D-03  0.00D+00 EMaxC= 1.00D+00 BMatC= 8.09D-01 BMatP= 1.27D+00
 IDIUse=1 WtCom= 1.00D+00 WtEn= 0.00D+00
 Coeff-Com:  0.421D+00 0.579D+00
 Coeff:      0.421D+00 0.579D+00
 Gap=    -0.319 Goal=   None    Shift=    0.000
 T=  970. Gap= 0.009 NK=0 IS=  190 IE= 1302 IFin=  203
          NO(<0.9)=   2  NV(>0.1)=   1    200.73e < EF      0.27e >EF  Err=0.0D+00
 RMSDP=4.52D-02 MaxDP=6.63D+00 DE= 1.32D+00 OVMax= 8.05D-01

 Cycle   3  Pass 1  IDiag  1:
 RMSU=  3.63D-02    CP:  9.95D-01  4.04D-01
 E= -2628.27774178726     Delta-E=        7.366766341551 Rises=F Damp=F
 DIIS: error= 2.09D-02 at cycle   3 NSaved=   3.
 NSaved= 3 IEnMin= 1 EnMin= -2636.96758026735     IErMin= 2 ErrMin= 8.62D-03
 ErrMax= 2.09D-02  0.00D+00 EMaxC= 1.00D+00 BMatC= 3.59D+00 BMatP= 8.09D-01
 IDIUse=1 WtCom= 1.00D+00 WtEn= 0.00D+00
 Coeff-Com:  0.283D+00 0.540D+00 0.177D+00
 Coeff:      0.283D+00 0.540D+00 0.177D+00
 Gap=    -0.260 Goal=   None    Shift=    0.000
 T=  970. Gap= 0.004 NK=0 IS=    1 IE= 1302 IFin=  203
          NO(<0.9)=   1  NV(>0.1)=   1    200.62e < EF      0.38e >EF  Err=2.8D-14
 RMSDP=3.84D-02 MaxDP=7.25D+00 DE= 7.37D+00 OVMax= 9.74D-01

 Cycle   4  Pass 1  IDiag  1:
 RMSU=  1.12D-02    CP:  8.02D-01  3.90D-01  6.21D-02
 E= -2637.33530202192     Delta-E=       -9.057560234658 Rises=F Damp=F
 DIIS: error= 1.18D-02 at cycle   4 NSaved=   4.
 NSaved= 4 IEnMin= 4 EnMin= -2637.33530202192     IErMin= 2 ErrMin= 8.62D-03
 ErrMax= 1.18D-02  0.00D+00 EMaxC= 1.00D+00 BMatC= 4.63D-01 BMatP= 8.09D-01
 IDIUse=1 WtCom= 1.00D+00 WtEn= 0.00D+00
 Coeff-Com:  0.150D+00 0.408D+00 0.121D+00 0.321D+00
 Coeff:      0.150D+00 0.408D+00 0.121D+00 0.321D+00
 Gap=    -0.172 Goal=     0.100 Shift=    0.100
 T=  970. Gap= 0.071 NK=0 IS=    1 IE= 1302 IFin=  202
          NO(<0.9)=   0  NV(>0.1)=   0    201.00e < EF      0.00e >EF  Err=2.8D-14
 GapD=   -0.172 DampG=0.250 DampE=0.500 DampFc=0.1250 IDamp=-1.
 Damping current iteration by 1.25D-01
 RMSDP=1.17D-02 MaxDP=7.59D-01 DE=-9.06D+00 OVMax= 9.87D-01

 Cycle   5  Pass 1  IDiag  1:
 RMSU=  1.12D-03    CP:  8.04D-01  3.90D-01  7.72D-02  9.33D-01
 E= -2637.49727682427     Delta-E=       -0.161974802353 Rises=F Damp=T
 DIIS: error= 1.08D-02 at cycle   5 NSaved=   5.
 NSaved= 5 IEnMin= 5 EnMin= -2637.49727682427     IErMin= 2 ErrMin= 8.62D-03
 ErrMax= 1.08D-02  0.00D+00 EMaxC= 1.00D+00 BMatC= 3.57D-01 BMatP= 4.63D-01
 IDIUse=1 WtCom= 1.00D+00 WtEn= 0.00D+00
 Coeff-Com:  0.195D-01 0.214D+00 0.230D-01-0.415D+01 0.490D+01
 Coeff:      0.195D-01 0.214D+00 0.230D-01-0.415D+01 0.490D+01
 Gap=     0.094 Goal=     0.100 Shift=    0.006
 T=  970. Gap= 0.098 NK=3 IS=  202 IE=  209 IFin=  201
          NO(<0.9)=   0  NV(>0.1)=   0    201.00e < EF      0.00e >EF  Err=0.0D+00
 GapD=    0.094 DampG=0.500 DampE=0.500 DampFc=0.2500 IDamp=-1.
 Damping current iteration by 2.50D-01
 RMSDP=1.13D-02 MaxDP=9.12D-01 DE=-1.62D-01 OVMax= 7.37D-02

 Cycle   6  Pass 1  IDiag  1:
 RMSU=  1.17D-03    CP:  8.09D-01  3.94D-01  1.10D-01  8.08D-01  2.57D+00
 E= -2637.73395052175     Delta-E=       -0.236673697485 Rises=F Damp=T
 DIIS: error= 8.08D-03 at cycle   6 NSaved=   6.
 NSaved= 6 IEnMin= 6 EnMin= -2637.73395052175     IErMin= 6 ErrMin= 8.08D-03
 ErrMax= 8.08D-03  0.00D+00 EMaxC= 1.00D+00 BMatC= 1.99D-01 BMatP= 3.57D-01
 IDIUse=1 WtCom= 1.00D+00 WtEn= 0.00D+00
 Coeff-Com: -0.626D-02 0.133D+00-0.419D-02-0.239D+01 0.153D+01 0.173D+01
 Coeff:     -0.626D-02 0.133D+00-0.419D-02-0.239D+01 0.153D+01 0.173D+01
 Gap=     0.103 Goal=     0.100 Shift=    0.000
 T=  850. Gap= 0.087 NK=2 IS=  202 IE=  208 IFin=  201
          NO(<0.9)=   0  NV(>0.1)=   0    201.00e < EF      0.00e >EF  Err=0.0D+00
 GapD=    0.103 DampG=1.000 DampE=1.000 DampFc=1.0000 IDamp=-1.
 RMSDP=7.89D-03 MaxDP=5.74D-01 DE=-2.37D-01 OVMax= 2.95D-02

 Cycle   7  Pass 1  IDiag  1:
 RMSU=  5.37D-03    CP:  8.23D-01  4.09D-01  1.92D-01  4.56D-01  3.00D+00
                    CP:  2.38D+00
 E= -2638.09727625346     Delta-E=       -0.363325731711 Rises=F Damp=F
 DIIS: error= 1.42D-03 at cycle   7 NSaved=   7.
[...]
 -0.00018394,0.00013832,0.00001036,-0.00000157,-0.00002756,-0.00000030,
 -0.00002305,0.00000880,0.00000321,-0.00002366,0.00000290,-0.00001672,0
 .00001747,0.00001950,0.00005303,0.00162613,-0.00022967,0.00002289,0.00
 011796,-0.00004999,0.00004419,0.00009622,-0.00001117,0.00009299,0.0000
 4361,-0.00009668,0.00013180,-0.00001431,-0.00009696,0.00010051,-0.0000
 4942,-0.00014956,0.00001577,-0.00000573,-0.00000404,0.00001112,0.00000
 357,0.00000092,0.00001338,0.00001016,-0.00000919,0.00003846,-0.0000020
 1,-0.00000949,-0.00000094,-0.00001065,0.00000236,0.00000137,-0.0000088
 5,-0.00000056,-0.00000194,-0.00000742,0.00000567,0.00000021,-0.0000074
 6,0.00000165,-0.00002466,-0.00000441,-0.00001897,-0.00001583,0.0000099
 6,-0.00000520,-0.00001011,0.00000995,-0.00000086,-0.00001812,-0.000014
 31,0.00002803,0.00001118,-0.00001260,-0.00000923,0.00000534,-0.0000182
 6,0.00001665,0.00002844,-0.00013597,-0.00001255,0.00004089,-0.00003897
 ,-0.00001249,0.00005794,0.00002656,-0.00001785,-0.00000552,0.00000505,
 -0.00000683,0.00007733,-0.00005741,-0.00006881,0.00074376,0.00020068,0
 .00021274,-0.00015572,-0.00004125,-0.00005330,-0.00006878,-0.00002151,
 0.00005618,-0.00007116,0.00003011,0.00008813,0.00024686,-0.00023654,0.
 00011916,0.01419704,0.00016608,-0.00000776,0.00003253,-0.00000151,-0.0
 0006916,-0.00009415,0.00012744,-0.00000157,0.00001366,-0.00004664,-0.0
 0000405,0.00002085,0.00012061,0.00009024,0.00013736,-0.00031304,0.0000
 4416,-0.00028462,-0.00009688,-0.00011843,0.00049470,0.00011717,0.00052
 946,-0.00041269,0.00012232,-0.00000430,-0.00012434,-0.00034113,-0.0002
 8863,-0.00000443,-0.00013179,0.00014898,0.00001576,0.00013167,-0.00029
 064,0.00024429,0.00000439,0.00007252,0.00006140,-0.00012755,0.00017255
 ,-0.00003581,0.00013757,-0.00041069,0.00047146,-0.00008240,-0.00060725
 ,0.00037596,0.00047245,0.00138546,0.00045524,-0.00021447,-0.00127676,0
 .00089393,-0.00099991,-0.00101807,-0.00200525,-0.00066137,-0.00081944,
 0.00728433,-0.00031976,-0.00105382,-0.00003241,0.00011441,0.00094838,-
 0.00059882,0.00018340,-0.00007173,0.00108480,-0.00074609,0.00128030,-0
 .00238200,-0.00002660,0.00006546,0.00007017,0.00001241,-0.00004724,-0.
 00008263,0.00003786,-0.00006571,0.00000020,-0.00000595,0.00001637,-0.0
 0004174,-0.00010177,0.00005617,-0.00024558,0.00010403,0.00036138,-0.00
 044948,-0.00006417,-0.00058264,0.00008127,-0.00533803,-0.00627920,0.00
 811559,0.00001021,0.00001548,-0.00000733,-0.00002574,-0.00005872,0.000
 04346,-0.00007164,0.00001916,0.00013950,-0.00000105,0.00000579,-0.0000
 0121,0.00008387,-0.00007002,-0.00015039,-0.00008654,0.00025703,-0.0000
 6852,0.00004860,-0.00011214,-0.00002118,0.00001495,-0.00012354,0.00009
 879,-0.00010257,0.00028091,-0.00006189,0.00002037,-0.00004251,-0.00003
 834,-0.00001915,0.00004593,-0.00000289,-0.00000034,0.00001613,-0.00001
 366,-0.00001216,0.00000564,0.00002480,0.00000137,0.00016468,-0.0000630
 7,-0.00006879,0.00000738,0.00006496,0.00000850,0.00002164,-0.00001639,
 0.00000645,0.00000140,0.00000635,-0.00011875,-0.00005181,0.00011809,-0
 .00000375,-0.00000113,0.00000452,0.00000195,-0.00000505,0.00000046,0.0
 0000252,-0.00001544,-0.00000101,-0.00000506,0.00001561,0.00000574,0.00
 012582,0.00033597,-0.00036667,0.00004041,-0.00014918,0.00004794,0.0000
 6854,0.00000229,-0.00004795,0.00010955,-0.00001719,-0.00010470,0.00004
 669,-0.00011741,0.00002985,0.00003836,-0.00009093,0.00000050,0.0000020
 7,-0.00001117,0.00001068,0.00000213,-0.00001280,0.00000315,-0.00000368
 ,-0.00001207,-0.00000164,-0.00001617,-0.00004351,-0.00000773,-0.000007
 38,-0.00000429,-0.00000516,-0.00000539,-0.00000454,0.00000111,-0.00000
 444,-0.00000360,0.00000258,-0.00000096,-0.00000395,-0.00000066,0.00001
 273,0.00002572,0.00000580,0.00001797,0.00000952,-0.00000453,0.00000673
 ,0.00000960,-0.00000012,-0.00003686,0.00002943,0.00000469,0.00003208,0
 .00001094,-0.00002186,0.00000959,0.00001838,0.00001591,-0.00008905,-0.
 00004293,-0.00001224,0.00000731,-0.00003511,-0.00000195,0.00003594,-0.
 00002249,0.00006235,-0.00000003,0.00000604,-0.00000155,-0.00003909,-0.
 00006968,-0.00017101,0.00069954,-0.00070165,-0.00034450,-0.00001272,0.
 00009925,-0.00005101,-0.00005966,0.00001087,0.00003986,-0.00001348,0.0
 0004997,0.00001728,0.00007230,0.00008324,0.00025351,0.00711920,0.00813
 650,-0.00014785,-0.00000037,0.00007473,0.00009037,0.00000240,0.0000060
 9,-0.00017756,-0.00000373,-0.00002444,0.00003753,-0.00000053,-0.000135
 07,-0.00035407,0.00007359,0.00008611,0.00046771,-0.00012170,-0.0000116
 4,0.00016109,0.00018768,0.00057847,-0.00032440,-0.00223283,0.00241350,
 -0.00014941,-0.00039634,-0.00064942,0.00000665,0.00015968,0.00022883,0
 .00020081,0.00126479,0.00152389,-0.00014732,0.00062829,0.00046113,0.00
 021432,-0.00048894,-0.00022067,0.00008670,-0.00015673,0.00002792,-0.00
 004555,0.00064414,0.00114115,-0.00000241,0.00225707,-0.00187075,-0.000
 22493,0.00114370,-0.00141131,-0.00028775,-0.00058103,-0.00076576,0.000
 67336,0.00163291,0.00105577,0.00311801,0.00576794,-0.01268804,0.000555
 88,0.00118659,0.00036731,0.00008955,-0.00072916,0.00046922,-0.00025013
 ,-0.00068243,0.00042257,-0.00083786,-0.00023621,-0.00077168,-0.0001307
 3,0.00012847,-0.00008643,-0.00002092,-0.00000964,-0.00005525,-0.000046
 07,0.00007378,-0.00004278,0.00012847,-0.00016573,0.00009426,-0.0000447
 9,-0.00048857,-0.00049444,-0.00003755,-0.00009462,-0.00083630,0.000343
 17,-0.00119620,0.00115720,0.01582109,0.00908438,-0.02566846,0.00001114
 ,-0.00001155,0.00000173,0.00003711,0.00001433,-0.00007631,0.00005630,-
 0.00000788,-0.00017046,-0.00001456,-0.00000914,0.00000187,-0.00005793,
 0.00005047,0.00015455,0.00001671,-0.00014191,0.00031541,-0.00002535,0.
 00002966,0.00000615,-0.00001815,0.00013344,-0.00009545,0.00007610,-0.0
 0020582,0.00015306,-0.00004391,0.00006910,0.00005717,0.00002444,-0.000
 05060,-0.00000826,0.00000524,-0.00000419,-0.00001077,0.00001629,-0.000
 04019,-0.00001057,-0.00000871,-0.00009825,0.00009150,0.00003224,0.0000
 7524,0.00006836,-0.00001442,-0.00000928,-0.00000067,0.00000013,-0.0000
 3666,-0.00000167,0.00009101,0.00009688,-0.00006211,-0.00000624,-0.0000
 1148,0.00001530,0.00000171,0.00001147,-0.00000897,0.00000306,0.0000058
 1,-0.00000568,0.00000354,0.00000522,-0.00001226,-0.00042999,-0.0034229
 8,0.00005709,-0.00003561,0.00009574,-0.00008396,-0.00002635,-0.0000795
 8,-0.00010990,-0.00007911,-0.00001261,0.00004552,0.00003464,0.00005184
 ,-0.00033143,-0.00002497,0.00004240,-0.00010138,-0.00000577,0.00003092
 ,0.00000015,-0.00000138,0.00000564,-0.00000602,-0.00000674,-0.00000768
 ,0.00002166,-0.00002798,-0.00000917,0.00003030,0.00000899,0.00000614,0
 .00000392,0.00000519,0.00000744,0.00000415,0.00000645,0.00000559,0.000
 00004,0.00000604,0.00000472,0.00000109,-0.00000718,-0.00002201,-0.0000
 0341,-0.00000924,-0.00000261,0.00001857,0.00000478,-0.00000423,0.00000
 520,0.00010974,0.00000504,-0.00009383,-0.00001131,0.00000165,0.0000167
 9,-0.00008023,-0.00004118,-0.00001621,0.00001785,-0.00008662,0.0000891
 8,-0.00005935,0.00004872,-0.00003921,-0.00004004,-0.00011273,0.0000055
 3,0.00001054,-0.00000167,-0.00000025,-0.00000342,-0.00005587,0.0000493
 6,0.00064439,-0.00133385,0.00003159,-0.00012445,-0.00005875,0.00025664
 ,0.00006525,0.00000988,-0.00000815,0.00005952,-0.00001015,0.00003355,-
 0.00012938,0.00085077,-0.00022419,-0.01884481,-0.01246267,0.03543459,-
 0.00008786,0.00003111,0.00010941,0.00003332,0.00005682,0.00024221,0.00
 019684,-0.00002268,-0.00018662,-0.00013641,0.00015778,-0.00038548,-0.0
 0013426,0.00007159,-0.00001385,-0.00002692,-0.00001394,0.00000216,-0.0
 0003265,0.00000834,0.00000702,-0.00000348,0.00007200,-0.00008889,-0.00
 000960,-0.00000368,0.00011762,-0.00001569,-0.00002705,-0.00000907,-0.0
 0000545,-0.00016445,-0.00019216,-0.00006863,-0.00010377,-0.00029531,-0
 .00005401,0.00013253,0.00004951,0.00005788,-0.00006867,-0.00002013,-0.
 00021342,-0.00007841,-0.00044338,0.00000700,-0.00015436,0.00014057,-0.
 00007012,-0.00014334,-0.00005027,0.00003390,0.00008471,-0.00001501,0.0
 0005309,0.00007968,0.00005761,-0.00008065,-0.00021015,-0.00002505,-0.0
 0000643,0.00002911,-0.00002053,-0.00000595,-0.00002520,0.00000413,-0.0
 0000737,-0.00001465,-0.00000352,0.00000134,-0.00000887,0.00002766,0.00
 004072,-0.00009181,-0.00002494,-0.00001137,0.00004765,0.00005898,0.000
 00817,0.00002349,0.00003036,-0.00001466,0.00008928,-0.00004439,0.00008
 800,0.00008681,0.00028270,0.00029827,0.00011592,0.00031929,0.00002526,
 0.00007568,0.00002797,0.00003597,0.00008651,0.00000787,-0.00001913,0.0
 0005307,0.00004297,0.00100374,0.00009846,0.00019379,0.00003948,-0.0001
 0981,-0.00008584,0.00022708,0.00001967,-0.00004032,-0.00004295,0.00025
 021,0.00003851,0.00010993,0.00005372,0.00015163,0.00000478,-0.00001105
 ,-0.00000831,-0.00000938,0.00002405,-0.00000412,0.00016019,-0.00011503
 ,-0.00001236,-0.00001471,0.00001380,-0.00001278,0.00000882,-0.00000162
 ,-0.00000683,0.00000273,0.00000285,-0.00000103,0.00000085,-0.00001519,
 -0.00000408,-0.00002883,-0.00004940,0.00033710,0.00044996,0.00096246,0
 .00179723,-0.00036508,0.00020712,0.00036867,-0.00009244,0.00009299,0.0
 0015992,0.00028767,0.00021386,-0.00008241,0.00030490,-0.00048215,-0.00
 084749,-0.00025359,0.00001059,0.00035575,0.00007385,-0.00015584,0.0000
 3783,0.00000199,0.00008968,-0.00000658,0.00002701,0.00031426,0.0001107
 8,-0.00017031,-0.00013556,-0.00004566,-0.00517547,-0.00070515,-0.00196
 241,-0.00024384,-0.00002687,0.00011626,-0.00019374,-0.00007631,-0.0001
 7936,-0.00010388,0.00002171,0.00006134,-0.00000959,0.00000306,-0.00000
 752,-0.00001320,0.00000659,0.00000100,-0.00003398,0.00000695,-0.000000
 95,-0.00007415,-0.00002162,0.00002352,0.00068344,0.00033511,-0.0003078
 8,0.00009015,0.00001018,-0.00002305,0.00001211,0.00001602,0.00004064,-
 0.00000087,0.00001043,0.00001188,0.00001674,0.00000514,0.00000311,0.00
 000813,0.00000318,0.00000220,0.00000599,0.00000337,0.00000172,-0.00001
 614,-0.00000448,0.00000860,0.00001510,0.00001675,0.00006021,0.00018705
 ,-0.00028657,0.00019551,-0.00008902,-0.00010497,-0.00000304,-0.0000020
 5,-0.00000532,-0.00000688,-0.00000113,-0.00000451,-0.00000515,0.000007
 35,0.00000195,0.00000426,0.00000089,-0.00000486,0.00000024,0.00000105,
 -0.00000854,-0.00000411,0.00031056,0.00015070,0.00003514,0.00011090,0.
 00006871,0.00010058,0.00006334,0.00002018,0.00000664,-0.00003636,-0.00
 008593,-0.00011779,-0.00002852,-0.00007402,0.00002283,0.00290778,0.000
 15131,0.00000496,0.00003641,-0.00002703,-0.00002764,-0.00009987,0.0001
 6276,0.00007218,0.00013006,-0.00016947,0.00007958,-0.00037635,0.000088
 90,0.00012372,0.00025674,-0.00019386,-0.00002221,-0.00005473,-0.000032
 31,-0.00006117,0.00000568,0.00005222,-0.00006114,-0.00003835,0.0000387
 7,0.00010738,-0.00007628,0.00000995,0.00001276,0.00002187,0.00006371,-
 0.00009825,0.00007917,-0.00018002,0.00042052,0.00012871,0.00006423,-0.
 00022017,-0.00016614,0.00008230,-0.00013920,0.00008325,-0.00018321,0.0
 0034464,-0.00004507,0.00003255,0.00014881,-0.00001917,-0.00011522,-0.0
 0008036,-0.00011700,0.00002149,0.00004740,-0.00001413,0.00004058,0.000
 07024,0.00004073,-0.00009473,-0.00009611,-0.00004353,-0.00000374,0.000
 02107,-0.00001550,-0.00000603,-0.00001807,-0.00000117,-0.00000022,-0.0
 0001039,0.00000706,-0.00000249,-0.00001735,0.00001463,-0.00002327,0.00
 001955,-0.00003597,-0.00000995,0.00000888,0.00001537,-0.00005103,0.000
 06726,-0.00000747,0.00004605,-0.00010230,0.00005906,0.00004817,-0.0001
 4577,-0.00008277,0.00018970,-0.00021072,0.00009990,0.00006789,-0.00002
 517,0.00007743,0.00008905,0.00003211,0.00003771,-0.00020206,-0.0001352
 0,-0.00032090,-0.00013705,0.00155229,0.00117764,0.00016067,0.00011320,
 -0.00008982,0.00006004,-0.00042312,0.00014349,-0.00025084,-0.00025851,
 0.00042493,0.00017386,-0.00071496,0.00001700,-0.00013359,0.00039279,0.
 00001287,-0.00003669,0.00019407,-0.00015842,0.00021190,-0.00051756,-0.
 00013191,-0.00002138,-0.00002134,0.00010766,0.00000063,-0.00003888,0.0
 0003404,0.00000193,-0.00005182,0.00004864,0.00002997,0.00005538,-0.000
 09788,0.00043441,-0.00140800,-0.00060874,0.00241416,-0.00362534,-0.009
 90521,-0.00076260,-0.00166451,0.00292947,0.00051260,-0.00135445,-0.000
 84529,0.00041245,0.00139916,-0.00121225,-0.00151019,0.00095340,0.00206
 501,0.00031371,0.00016171,-0.00117104,-0.00060950,0.00125655,0.0006385
 9,0.00021798,-0.00150783,0.00039158,0.00002473,-0.00012564,0.00002402,
 -0.00033201,0.00158983,0.00022934,-0.00102755,-0.01527512,-0.01478761,
 -0.00027077,-0.00035547,0.00044448,-0.00007668,0.00041848,0.00015301,-
 0.00016378,0.00025048,0.00023375,0.00000353,0.00001069,-0.00000075,0.0
 0001011,0.00000964,0.00000214,0.00003164,0.00000985,0.00000389,0.00001
 536,0.00004602,0.00000004,0.00084024,0.00016477,0.00044343,-0.00000890
 ,-0.00002081,0.00021571,0.00005235,0.00003124,-0.00005483,0.00001871,-
 0.00003029,0.00002744,-0.00000255,-0.00003300,0.00000574,-0.00000004,-
 0.00001388,0.00001427,0.00000881,-0.00002234,-0.00000417,0.00000596,0.
 00001332,0.00002608,-0.00000982,-0.00000283,0.00000350,-0.00004168,-0.
 00019229,0.00027212,-0.00006760,0.00003920,-0.00000972,-0.00000778,-0.
 00000080,-0.00000474,-0.00000644,-0.00000276,-0.00000334,0.00000455,-0
 .00001284,0.00001425,-0.00000489,-0.00000317,0.00000098,-0.00000841,-0
 .00000527,0.00000151,0.00005623,-0.00034241,0.00021552,0.00028288,0.00
 007733,-0.00020186,0.00011443,-0.00011250,-0.00019560,-0.00006856,0.00
 008814,-0.00003900,-0.00008958,-0.00001597,0.00004258,-0.00071999,0.01
 921632,0.00015184,-0.00004817,-0.00018037,-0.00013742,-0.00003541,-0.0
 0038779,-0.00001855,0.00016608,-0.00012617,0.00019462,0.00022868,0.000
 60359,0.00011577,0.00005835,0.00004226,-0.00019716,-0.00000652,-0.0000
 7594,-0.00001393,-0.00010561,-0.00000602,0.00003818,0.00002125,-0.0000
 8442,0.00005886,0.00006761,-0.00006382,0.00002901,0.00002020,0.0000304
 7,0.00001849,-0.00003976,0.00003116,-0.00011483,0.00019923,0.00018600,
 0.00005772,-0.00015528,-0.00012940,0.00002436,-0.00000492,0.00003235,-
 0.00000456,0.00009793,0.00029502,-0.00000710,-0.00001403,0.00003810,-0
 .00006885,-0.00010260,-0.00000221,0.00002385,0.00006459,-0.00000742,0.
 00002797,0.00003160,0.00001481,-0.00007687,-0.00014392,0.00011520,-0.0
 0000877,-0.00000025,-0.00001556,-0.00000563,-0.00000716,-0.00000417,-0
 .00000435,-0.00001084,-0.00000745,0.00000943,0.00000285,0.00002316,-0.
 00003395,0.00006373,-0.00001538,-0.00001003,-0.00000363,-0.00004355,-0
 .00003191,0.00004785,0.00000201,0.00005243,-0.00008853,0.00008734,0.00
 003250,-0.00006260,-0.00014910,-0.00002252,-0.00007588,-0.00023323,0.0
 0003690,0.00003929,-0.00001818,0.00006828,0.00007259,-0.00014269,-0.00
 002504,-0.00011928,0.00060538,-0.00097350,0.00242146,0.00203326,0.0001
 5799,0.00056163,-0.00091405,0.00004440,-0.00012877,0.00016241,-0.00036
 142,-0.00130997,0.00150827,-0.00010191,-0.00079712,0.00158298,-0.00009
 125,0.00029348,-0.00008469,-0.00007301,0.00033039,-0.00018687,0.000054
 63,-0.00042357,0.00027585,-0.00007870,0.00002497,0.00012410,0.00001104
 ,-0.00002797,0.00001596,0.00001819,-0.00001558,-0.00001619,0.00005536,
 -0.00004085,-0.00008730,0.00090236,-0.00205164,-0.00152886,0.00251468,
 -0.00746781,-0.01018847,0.00008850,-0.00132782,0.00106285,-0.00008164,
 0.00095962,-0.00063032,0.00107202,-0.00143530,-0.00107972,0.00124268,-
 0.00014000,-0.00159828,-0.00036825,0.00083379,0.00059479,-0.00043648,0
 .00046121,0.00037624,-0.00006733,-0.00113709,0.00051874,0.00005350,-0.
 00000533,-0.00004911,-0.00040738,0.00339193,-0.00033842,-0.00140557,-0
 .01537565,-0.02155717,-0.00122177,0.00077014,0.00123526,0.00010783,-0.
 00003390,-0.00142197,0.00000016,0.00026062,-0.00021157,-0.00001237,-0.
 00000065,0.00000147,-0.00000847,0.00000176,0.00000506,0.00001461,-0.00
 000078,0.00002008,0.00002050,0.00001993,0.00002705,-0.00120214,0.00120
 360,-0.00041667,-0.00000836,0.00010143,0.00001518,-0.00002970,0.000145
 59,0.00001558,0.00000554,0.00003001,0.00006508,0.00001249,-0.00001867,
 -0.00001065,0.00000133,-0.00000412,0.00002386,0.00000658,-0.00001485,-
 0.00000387,0.00000311,-0.00001632,0.00001380,-0.00002244,-0.00007731,-
 0.00006965,-0.00010070,0.00007193,0.00003142,0.00007241,0.00004292,0.0
 0006629,-0.00000763,-0.00000222,-0.00000084,-0.00000543,-0.00000238,-0
 .00000048,0.00000872,-0.00001791,0.00000888,-0.00000414,-0.00000278,0.
 00000372,-0.00000671,-0.00000273,-0.00000030,0.00002005,0.00054628,0.0
 0072117,0.00066750,-0.00014264,-0.00046295,0.00007177,-0.00018219,-0.0
 0004054,-0.00008196,0.00000532,0.00002358,-0.00004807,-0.00000960,0.00
 013535,-0.00018034,0.01957807,0.02981665\\0.00000612,-0.00000029,-0.00
 000230,-0.00000451,-0.00000061,-0.00000195,-0.00000199,0.00000038,0.00
 000163,0.00000328,-0.00000054,-0.00000067,-0.00000324,0.00000020,-0.00
 000174,-0.00000234,0.00000027,0.00000670,0.00000291,-0.00000458,0.0000
 0141,0.00000305,0.00000486,-0.00000222,-0.00000188,0.00000495,-0.00001
 108,-0.00000111,0.00000057,0.00000003,0.00000105,-0.00000590,-0.000001
 11,0.00000251,0.00000255,0.00000154,-0.00000193,-0.00000338,-0.0000001
 2,-0.00000057,0.00000679,-0.00000040,0.00000043,-0.00000721,0.00001247
 ,-0.00000160,-0.00000138,0.00000126,0.00000208,0.00000383,-0.00000098,
 -0.00000143,-0.00000305,-0.00000187,-0.00000010,0.00000326,0.00000427,
 -0.00000110,-0.00000745,-0.00000336,0.00000084,0.00000228,0.00000075,-
 0.00000021,-0.00000093,0.00000078,0.00000006,-0.00000005,0.00000039,-0
 .00000075,-0.00000104,-0.00000110,0.00000061,-0.00000175,-0.00000120,0
 .00000048,0.00000075,0.00000334,-0.00000216,0.00000162,-0.00000227,0.0
 0000168,-0.00000113,-0.00000071,-0.00000060,0.00000152,-0.00000235,0.0
 0000042,0.00000137,-0.00000288,-0.00000226,-0.00000374,0.00000128,-0.0
 0000075,0.00000384,0.00000462,0.00000579,-0.00000407,-0.00000143,-0.00
 000069,0.00000770,0.00000095,-0.00000348,0.00000486,0.00000074,-0.0000
 0011,0.00000057,0.,0.00000211,-0.00000757,0.00000305,-0.00000325,0.000
 00227,0.00000194,0.00000200,-0.00000262,-0.00000150,0.00000055,0.00000
 149,-0.00000085,-0.00000218,0.00000116,0.00000254,-0.00000101,0.000001
 90,0.00000020,0.00000081,-0.00000109,-0.00000108,-0.00000028,0.0000001
 7,0.00000007,0.00000001,-0.00000105,0.00000009,0.00000089,-0.00000494,
 -0.00000306,0.00000529,-0.00000334,0.00000050,0.00000049,0.00000088,-0
 .00000200,0.00000006,0.00000161,0.00000128,-0.00000421,-0.00000333,-0.
 00000272,-0.00000060,-0.00000098,0.00000057,0.00000060,0.00000013,-0.0
 0000124,-0.00000066,0.00000046,0.00000062,0.00000032,-0.00000014,-0.00
 000093,0.00000020,0.00000411,0.00000245,-0.00000239,0.00000560,-0.0000
 0185,-0.00000727,0.00000021,0.00000313,0.00000525,0.00000329,0.0000043
 5,0.00000367,-0.00000072,-0.00000232,0.00000112,-0.00000129,-0.0000036
 3,-0.00000056,-0.00000018,0.00000036,-0.00000009,0.00000003,0.00000034
 ,0.00000121,0.00000068,0.00000009,-0.00000030,-0.00000060,0.00000025,0
 .00000003,0.00000025,-0.00000020,0.00000001,-0.00000001,0.00000002,-0.
 00000019,-0.00000003,-0.00000019,0.00000008,-0.00000033,0.00000011,0.0
 0000025,-0.00000025,-0.00000036,-0.00000004,-0.00000005,-0.00000013,0.
 ,-0.00000007,-0.00000019,-0.00000181,0.00000009,0.00000055,0.00000066,
 0.00000006,0.00000044,-0.00000023,0.00000016,-0.00000024,0.00000018,-0
 .00000008,0.00000022,-0.00000011,-0.00000019,-0.00000003,-0.00000006,0
 .00000019,-0.00000004,0.00000024,0.00000019,-0.00000019,-0.00000013,0.
 00000013,0.00000029,0.00000021,-0.00000009,0.00000015,-0.00000099,0.00
 000015,0.00000083,-0.00000166,-0.00000092,-0.00000193,-0.00000061,0.00
 000083,0.00000117,0.00000026,0.00000132,0.00000132,0.00000082,-0.00000
 081,-0.00000206,0.00000284,-0.00000172,-0.00000262\\\@
 The archive entry for this job was punched.


 LET US PLACE AT THE END OF EVERY CHAPTER.....THE
 TWO LETTERS USED BY THE ROMAN JUDGES WHEN THEY DID
 NOT UNDERSTAND A PLEADING.
 N. L. -NON LIQUET- IT IS NOT CLEAR.
                                              -- VOLTAIRE
 Job cpu time:      54 days  7 hours 14 minutes 34.0 seconds.
 Elapsed time:       0 days 20 hours 23 minutes 49.6 seconds.
 File lengths (MBytes):  RWF=  12381 Int=      0 D2E=      0 Chk=    144 Scr=      1
 Normal termination of Gaussian 16 at Sat Oct 28 16:34:53 2023.
