7
log_files/3-1-5-oso.log	Energy:  -98169.3197236
B          1.38365       -0.19980        0.00000
B          1.52873       -1.74285        0.00000
B         -0.03692       -1.16357        0.00000
B         -1.41511       -0.39435       -0.00000
B         -1.53391        1.15673       -0.00000
B         -0.00000        0.58017       -0.00000
Li         0.12261        2.93946       -0.00000
