86
log_files/base_molecule_Li_6_5_008.log	Energy: -1655450.2216628
C         -0.43377       -0.59374        0.13537
C          0.94294       -0.31990        0.11328
C          1.57310        0.12613       -1.06034
C          0.78290        0.28024       -2.21002
C         -0.58609        0.01090       -2.18898
C         -1.22244       -0.42816       -1.01303
C         -2.75725       -0.62818       -1.05306
C         -3.35390       -1.65810       -0.09067
C         -3.48999        0.68802       -0.78881
H         -3.00328       -0.93494       -2.07363
C         -3.96330        0.96046        0.43528
C         -4.90140        2.06306        0.78719
C         -5.18173        3.02758       -0.26449
C         -4.64009        2.82997       -1.56975
C         -3.77186        1.66429       -1.88954
C         -3.82525       -1.24533        1.11064
C         -4.61720       -2.06779        2.08191
C         -4.69800       -3.49608        1.79705
C         -4.23262       -3.97295        0.53735
C         -3.72746       -3.03737       -0.49100
C         -5.27076       -4.37352        2.72296
C         -5.35565       -5.74299        2.43001
C         -4.87476       -6.22484        1.21098
C         -4.32575       -5.34330        0.26690
C         -6.03843        4.11029       -0.01208
C         -6.35944        5.00159       -1.04153
C         -5.83317        4.80746       -2.32142
C         -4.97720        3.72517       -2.58549
O         -5.43414        2.02644        1.91058
O         -3.28376        1.45756       -2.99687
O         -5.18356       -1.47851        3.00917
O         -3.66821       -3.35954       -1.70196
C          3.08073        0.46674       -1.12227
C          3.44520        1.62922       -0.21089
C          3.96675       -0.72063       -0.77454
H          3.29536        0.76364       -2.15291
C          4.58061       -0.81218        0.43503
C          4.26663       -1.75911       -1.79317
C          4.92136       -3.00872       -1.36937
C          5.46800       -3.12642       -0.06102
C          5.32758       -2.02947        0.89950
C          5.03697       -4.08645       -2.25230
C          5.70519       -5.26268       -1.87854
C          6.27017       -5.36538       -0.60726
C          6.14415       -4.30092        0.29502
C          4.12027        1.43121        0.95176
C          3.13954        3.02590       -0.61918
C          3.20708        4.08832        0.39848
C          3.87991        3.85130        1.62783
C          4.50558        2.54946        1.87885
C          2.62945        5.34066        0.16854
C          2.70627        6.35803        1.13216
C          3.36783        6.12547        2.33867
C          3.95294        4.87507        2.58090
O         -3.81986        0.06120        1.47568
O          4.57531        0.20572        1.34548
O          2.84951        3.26495       -1.81239
O          5.32422        2.34408        2.79221
O          4.00411       -1.52344       -2.99435
O          5.76407       -2.07110        2.06385
H         -6.45215        4.24121        0.98264
H         -7.02802        5.83408       -0.84691
H         -6.09806        5.48910       -3.12379
H         -4.58944        3.56173       -3.58562
H          2.08128        5.52656       -0.74879
H          2.24560        7.32254        0.94123
H          3.42485        6.90696        3.09030
H          4.43881        4.69913        3.53416
H          4.57926       -4.03578       -3.23413
H          5.78352       -6.08905       -2.57856
H          6.80273       -6.26557       -0.31591
H         -0.88365       -0.93654        1.06257
H          1.51604       -0.45661        1.02743
H          1.23550        0.62089       -3.13756
H         -1.17749        0.17186       -3.08482
H         -5.64871       -3.98446        3.66329
H         -5.79847       -6.42393        3.15024
H          6.59128       -4.39534        1.27738
H         -4.93173       -7.28562        0.98742
H         -3.94547       -5.73944       -0.66914
Li         4.34128       -1.75157       -4.80462
Li         6.62407        2.88529        4.03043
Li         6.53721       -2.75746        3.60758
Li        -5.47046        0.51533        3.12987
Li        -4.48802       -4.17609       -3.12761
Li         2.80217        4.41677       -3.26819
