      -----------------------------------------------------------      
     |                   =====================                   |     
     |                           x T B                           |     
     |                   =====================                   |     
     |                         S. Grimme                         |     
     |          Mulliken Center for Theoretical Chemistry        |     
     |                    University of Bonn                     |     
      -----------------------------------------------------------      

   * xtb version 6.6.0 (conda-forge) compiled by 'runner@Mac-1676020848589.local' on 2023-02-10

   xtb is free software: you can redistribute it and/or modify it under
   the terms of the GNU Lesser General Public License as published by
   the Free Software Foundation, either version 3 of the License, or
   (at your option) any later version.
   
   xtb is distributed in the hope that it will be useful,
   but WITHOUT ANY WARRANTY; without even the implied warranty of
   MERCHANTABILITY or FITNESS FOR A PARTICULAR PURPOSE.  See the
   GNU Lesser General Public License for more details.
   
   Cite this work as:
   * C. Bannwarth, E. Caldeweyher, S. Ehlert, A. Hansen, P. Pracht,
     J. Seibert, S. Spicher, S. Grimme, WIREs Comput. Mol. Sci., 2020, 11,
     e01493. DOI: 10.1002/wcms.1493
   
   for GFN2-xTB:
   * C. Bannwarth, S. Ehlert and S. Grimme., J. Chem. Theory Comput., 2019,
     15, 1652-1671. DOI: 10.1021/acs.jctc.8b01176
   for GFN1-xTB:
   * S. Grimme, C. Bannwarth, P. Shushkov, J. Chem. Theory Comput., 2017,
     13, 1989-2009. DOI: 10.1021/acs.jctc.7b00118
   for GFN0-xTB:
   * P. Pracht, E. Caldeweyher, S. Ehlert, S. Grimme, ChemRxiv, 2019, preprint.
     DOI: 10.26434/chemrxiv.8326202.v1
   for GFN-FF:
   * S. Spicher and S. Grimme, Angew. Chem. Int. Ed., 2020, 59, 15665-15673.
     DOI: 10.1002/anie.202004239
   
   for ALPB and GBSA implicit solvation:
   * S. Ehlert, M. Stahn, S. Spicher, S. Grimme, J. Chem. Theory Comput.,
     2021, 17, 4250-4261. DOI: 10.1021/acs.jctc.1c00471
   
   for DFT-D4:
   * E. Caldeweyher, C. Bannwarth and S. Grimme, J. Chem. Phys., 2017,
     147, 034112. DOI: 10.1063/1.4993215
   * E. Caldeweyher, S. Ehlert, A. Hansen, H. Neugebauer, S. Spicher,
     C. Bannwarth and S. Grimme, J. Chem. Phys., 2019, 150, 154122.
     DOI: 10.1063/1.5090222
   * E. Caldeweyher, J.-M. Mewes, S. Ehlert and S. Grimme, Phys. Chem. Chem. Phys.
     2020, 22, 8499-8512. DOI: 10.1039/D0CP00502A
   
   for sTDA-xTB:
   * S. Grimme and C. Bannwarth, J. Chem. Phys., 2016, 145, 054103.
     DOI: 10.1063/1.4959605
   
   in the mass-spec context:
   * V. Asgeirsson, C. Bauer and S. Grimme, Chem. Sci., 2017, 8, 4879.
     DOI: 10.1039/c7sc00601b
   * J. Koopman and S. Grimme, ACS Omega 2019, 4, 12, 15120-15133.
     DOI: 10.1021/acsomega.9b02011
   
   for metadynamics refer to:
   * S. Grimme, J. Chem. Theory Comput., 2019, 155, 2847-2862
     DOI: 10.1021/acs.jctc.9b00143
   
   for SPH calculations refer to:
   * S. Spicher and S. Grimme, J. Chem. Theory Comput., 2021, 17, 1701-1714
     DOI: 10.1021/acs.jctc.0c01306
   
   with help from (in alphabetical order)
   P. Atkinson, C. Bannwarth, F. Bohle, G. Brandenburg, E. Caldeweyher
   M. Checinski, S. Dohm, S. Ehlert, S. Ehrlich, I. Gerasimov, C. Hölzer
   A. Katbashev, J. Koopman, C. Lavigne, S. Lehtola, F. März, M. Müller,
   F. Musil, H. Neugebauer, J. Pisarek, C. Plett, P. Pracht, F. Pultar,
   J. Seibert, P. Shushkov, S. Spicher, M. Stahn, M. Steiner, T. Strunk,
   J. Stückrath, T. Rose, and J. Unsleber
   
 * started run on 2025/03/24 at 07:38:24.256     

           -------------------------------------------------
          |                Calculation Setup                |
           -------------------------------------------------

          program call               : xtb input_molecule.xyz --gfnff --chrg 0 --opt
          coordinate file            : input_molecule.xyz
          omp threads                :                    10

   ID    Z sym.   atoms
    1    6 C      1-6
    2    1 H      7-20

          ==================== Thresholds ====================
          CN  :   150.00000
          rep :   500.00000
          disp:  2500.00000
          HB1 :   250.00000
          HB2 :   450.00000

          Pauling EN used:
          Z : 1  EN :  2.20
          Z : 6  EN :  2.55
          electric field strengths (au): 0.000

           ------------------------------------------------- 
          |           Force Field Initialization            |
           ------------------------------------------------- 

          distances ...
          ----------------------------------------
          generating topology and atomic info file ...
          pair mat ...
          computing topology distances matrix with Floyd-Warshall algo ...
          making topology EEQ charges ...
          #fragments for EEQ constrain: 1
          ----------------------------------------
          generating topology and atomic info file ...
          pair mat ...
          computing topology distances matrix with Floyd-Warshall algo ...
          making topology EEQ charges ...
          #fragments for EEQ constrain: 1
          rings ...
          # BATM   162
          # H in HB   0

  atom   neighbors  erfCN metchar sp-hybrid imet pi  qest     coordinates
    1  C       4    3.48   0.00         3    0    0  -0.056    5.993077    0.473754    0.195020
    2  C       4    3.48   0.00         3    0    0  -0.038    3.531709   -1.013271   -0.017763
    3  C       4    3.48   0.00         3    0    0  -0.039    1.234558    0.750410    0.045542
    4  C       4    3.48   0.00         3    0    0  -0.039   -1.234558   -0.750410   -0.168564
    5  C       4    3.48   0.00         3    0    0  -0.038   -3.531709    1.013271   -0.105258
    6  C       4    3.48   0.00         3    0    0  -0.056   -5.993077   -0.473754   -0.318041
    7  H       1    0.97   0.01         0    0    0   0.019    6.172601    1.819806   -1.405767
    8  H       1    0.97   0.01         0    0    0   0.019    7.620321   -0.850188    0.143997
    9  H       1    0.97   0.01         0    0    0   0.019    6.049013    1.536347    2.004621
   10  H       1    0.97   0.01         0    0    0   0.018    3.545504   -2.094950   -1.819050
   11  H       1    0.97   0.01         0    0    0   0.018    3.422294   -2.377275    1.576787
   12  H       1    0.97   0.01         0    0    0   0.019    1.360414    2.113281   -1.550142
   13  H       1    0.97   0.01         0    0    0   0.019    1.237393    1.830767    1.849097
   14  H       1    0.97   0.01         0    0    0   0.019   -1.360414   -2.113281    1.427121
   15  H       1    0.97   0.01         0    0    0   0.019   -1.237393   -1.830767   -1.972118
   16  H       1    0.97   0.01         0    0    0   0.018   -3.545504    2.094950    1.696029
   17  H       1    0.97   0.01         0    0    0   0.018   -3.422294    2.377275   -1.699809
   18  H       1    0.97   0.01         0    0    0   0.019   -6.172601   -1.819806    1.282746
   19  H       1    0.97   0.01         0    0    0   0.019   -7.620321    0.850188   -0.267018
   20  H       1    0.97   0.01         0    0    0   0.019   -6.049013   -1.536347   -2.127643

          #atoms :   20
          #bonds :   19
          #angl  :   36
          #tors  :   48
          #nmol  :   1
          #optfrag :   1
           ------------------------------------------------- 
          |                   G F N - F F                   |
          |          A general generic force-field          |
          |                  Version 1.0.3                  | 
           ------------------------------------------------- 
          Number of HB bonds (bound hydrogen)     0
          Number of HB bonds (unbound hydrogen)   0
          Number of XB bonds                      0

 E+G (total)                   0 d,  0 h,  0 min,  0.002 sec
 distance/D3 list               ...        0 min,  0.000 sec (  0.091%)
 non bonded repulsion           ...        0 min,  0.000 sec ( 13.178%)
 dCN                            ...        0 min,  0.000 sec (  2.292%)
 EEQ energy and q               ...        0 min,  0.001 sec ( 40.786%)
 D3                             ...        0 min,  0.000 sec ( 11.390%)
 EEQ gradient                   ...        0 min,  0.000 sec (  6.857%)
 bonds                          ...        0 min,  0.000 sec (  7.119%)
 bend and torsion               ...        0 min,  0.000 sec ( 14.652%)
 bonded ATM                     ...        0 min,  0.000 sec (  0.889%)
 HB/XB (incl list setup)        ...        0 min,  0.000 sec (  1.313%)

         :::::::::::::::::::::::::::::::::::::::::::::::::::::
         ::                     SUMMARY                     ::
         :::::::::::::::::::::::::::::::::::::::::::::::::::::
         :: total energy              -2.842728850192 Eh    ::
         :: gradient norm              0.041166986941 Eh/a0 ::
         ::.................................................::
         :: bond energy               -2.975196163603 Eh    ::
         :: angle energy               0.000314117360 Eh    ::
         :: torsion energy             0.000007424343 Eh    ::
         :: repulsion energy           0.147670453719 Eh    ::
         :: electrostat energy        -0.005858255537 Eh    ::
         :: dispersion energy         -0.009832682198 Eh    ::
         :: HB energy                  0.000000000000 Eh    ::
         :: XB energy                  0.000000000000 Eh    ::
         :: bonded atm energy          0.000166255723 Eh    ::
         :: external energy            0.000000000000 Eh    ::
         :: add. restraining           0.000000000000 Eh    ::
         :: total charge              -0.000000000000 e     ::
         :::::::::::::::::::::::::::::::::::::::::::::::::::::

      ----------------------------------------------------------- 
     |                   =====================                   |
     |                        A N C O P T                        |
     |                   =====================                   |
     |               Approximate Normal Coordinate               |
     |                Rational Function Optimizer                |
      ----------------------------------------------------------- 

          ...................................................
          :                      SETUP                      :
          :.................................................:
          :   optimization level            normal          :
          :   max. optcycles                   200          :
          :   ANC micro-cycles                  20          :
          :   degrees of freedom                54          :
          :.................................................:
          :   RF solver                   davidson          :
          :   write xtbopt.log                true          :
          :   linear?                        false          :
          :   energy convergence         0.5000000E-05 Eh   :
          :   grad. convergence          0.1000000E-02 Eh/α :
          :   maxmium RF displ.          1.0000000          :
          :   Hlow (freq-cutoff)         0.1000000E-01      :
          :   Hmax (freq-cutoff)         5.0000000          :
          :   S6 in model hess.         20.0000000          :
          ...................................................

generating ANC from model Hessian ...
Using GFN-FF Lindh-Hessian
 Shifting diagonal of input Hessian by    7.4813107540337449E-003
 Lowest  eigenvalues of input Hessian
    0.000000    0.000000    0.000000    0.000000    0.000000    0.000000
    0.010000    0.010639    0.010876    0.014395    0.016491    0.019021
    0.021549    0.027690    0.038318    0.064378    0.068247    0.080228
 Highest eigenvalues
    1.450390    1.474561    1.518647    1.524125    1.547763    1.620479


........................................................................
.............................. CYCLE    1 ..............................
........................................................................
 * total energy  :    -2.8427289 Eh     change        0.0000000E+00 Eh
   gradient norm :     0.0411670 Eh/α   predicted     0.0000000E+00 (    NaN%)
   displ. norm   :     0.1346919 α      lambda       -0.4646899E-02
   maximum displ.:     0.0958868 α      in ANC's #36, #7, #15, ...

........................................................................
.............................. CYCLE    2 ..............................
........................................................................
 * total energy  :    -2.8460500 Eh     change       -0.3321196E-02 Eh
   gradient norm :     0.0176637 Eh/α   predicted    -0.2374418E-02 ( -28.51%)
   displ. norm   :     0.1260182 α      lambda       -0.1659977E-02
   maximum displ.:     0.0698091 α      in ANC's #36, #15, #7, ...

........................................................................
.............................. CYCLE    3 ..............................
........................................................................
 * total energy  :    -2.8469426 Eh     change       -0.8925502E-03 Eh
   gradient norm :     0.0068694 Eh/α   predicted    -0.8431813E-03 (  -5.53%)
   displ. norm   :     0.0299369 α      lambda       -0.8613089E-04
   maximum displ.:     0.0174937 α      in ANC's #23, #7, #15, ...

........................................................................
.............................. CYCLE    4 ..............................
........................................................................
 * total energy  :    -2.8470038 Eh     change       -0.6125362E-04 Eh
   gradient norm :     0.0034571 Eh/α   predicted    -0.4310494E-04 ( -29.63%)
   displ. norm   :     0.0195827 α      lambda       -0.3312948E-04
   maximum displ.:     0.0141208 α      in ANC's #23, #7, #8, ...

........................................................................
.............................. CYCLE    5 ..............................
........................................................................
 * total energy  :    -2.8470210 Eh     change       -0.1713828E-04 Eh
   gradient norm :     0.0002872 Eh/α   predicted    -0.1658698E-04 (  -3.22%)
   displ. norm   :     0.0029807 α      lambda       -0.3745492E-06
   maximum displ.:     0.0014842 α      in ANC's #15, #23, #13, ...

........................................................................
.............................. CYCLE    6 ..............................
........................................................................
 * total energy  :    -2.8470213 Eh     change       -0.3203481E-06 Eh
   gradient norm :     0.0001068 Eh/α   predicted    -0.1938449E-06 ( -39.49%)
   displ. norm   :     0.0011663 α      lambda       -0.2976140E-07
   maximum displ.:     0.0007155 α      in ANC's #7, #15, #8, ...

   *** GEOMETRY OPTIMIZATION CONVERGED AFTER 6 ITERATIONS ***

------------------------------------------------------------------------
 total energy gain   :        -0.0042925 Eh       -2.6936 kcal/mol
 total RMSD          :         0.0651642 a0        0.0345 Å
 total power (kW/mol):        -1.8783078 (step) -913.8729 (real)
------------------------------------------------------------------------

 ANCopt (total)                0 d,  0 h,  0 min,  0.012 sec
 optimizer setup                ...        0 min,  0.001 sec (  9.709%)
 model hessian                  ...        0 min,  0.002 sec ( 12.213%)
 ANC generation                 ...        0 min,  0.004 sec ( 31.532%)
 coordinate transformation      ...        0 min,  0.000 sec (  0.247%)
 single point calculation       ...        0 min,  0.002 sec ( 12.360%)
 optimization log               ...        0 min,  0.001 sec (  6.360%)
 hessian update                 ...        0 min,  0.000 sec (  2.651%)
 rational function              ...        0 min,  0.002 sec ( 19.043%)

================
 final structure:
================
20
 xtb: 6.6.0 (conda-forge)
C            3.19369090953993        0.24286851064416        0.10337344125414
C            1.88704865786344       -0.52723963008062       -0.00799617275089
C            0.65878236366992        0.38376682844314        0.02321590133910
C           -0.65877958556230       -0.38375094648227       -0.08831493549683
C           -1.88705422429156        0.52724946401829       -0.05710198047672
C           -3.19368890850217       -0.24288110652782       -0.16847495010635
H            3.30227485916432        0.95748044372029       -0.71531902461466
H            4.06405796422830       -0.41764071305915        0.08001511760991
H            3.23886267276018        0.81204275196714        1.03435065251252
H            1.87500405442951       -1.12062626867084       -0.93242321153742
H            1.81212275527885       -1.26485085463181        0.80264179908503
H            0.72593674942380        1.12052732670959       -0.78714475292990
H            0.66311414389221        0.97642571778189        0.94665877032968
H           -0.72593416398634       -1.12051285855706        0.72204431432318
H           -0.66311256693127       -0.97640947384810       -1.01175795672831
H           -1.87501469234670        1.12060746616109        0.86734255325638
H           -1.81213181303525        1.26483874318228       -0.86775913244977
H           -3.30227007300967       -0.95748451697764        0.65022484805553
H           -4.06405291953720        0.41763251994871       -0.14511600271377
H           -3.23885618304801       -0.81204340374126       -1.09945927796084

 Bond Distances (Angstroems)
 ---------------------------
C1-C2=1.5208         C1-H7=1.0921         C1-H8=1.0929         C1-H9=1.0921         C2-C1=1.5208         C2-C3=1.5296         
C2-H10=1.0986        C2-H11=1.0986        C3-C2=1.5296         C3-C4=1.5289         C3-H12=1.0973        C3-H13=1.0973        
C4-C3=1.5289         C4-C5=1.5296         C4-H14=1.0973        C4-H15=1.0973        C5-C4=1.5296         C5-C6=1.5208         
C5-H16=1.0986        C5-H17=1.0986        C6-C5=1.5208         C6-H18=1.0921        C6-H19=1.0929        C6-H20=1.0921        
H7-C1=1.0921         H8-C1=1.0929         H9-C1=1.0921         H10-C2=1.0986        H11-C2=1.0986        H12-C3=1.0973        
H13-C3=1.0973        H14-C4=1.0973        H15-C4=1.0973        H16-C5=1.0986        H17-C5=1.0986        H18-C6=1.0921        
H19-C6=1.0929        H20-C6=1.0921        
 C  H  Rav=1.0955 sigma=0.0028  Rmin=1.0921  Rmax=1.0986    14
 C  C  Rav=1.5259 sigma=0.0042  Rmin=1.5208  Rmax=1.5296     5

 selected bond angles (degree)
 --------------------
H7-C1-C2=111.22                H8-C1-C2=112.13                H8-C1-H7=107.47                H9-C1-C2=111.22                
H9-C1-H7=107.09                H9-C1-H8=107.47                C3-C2-C1=112.76                H10-C2-C1=110.16               
H10-C2-C3=109.27               H11-C2-C1=110.16               H11-C2-C3=109.27               H11-C2-H10=104.92              
C4-C3-C2=113.05                H12-C3-C2=109.62               H12-C3-C4=109.63               H13-C3-C2=109.62               
H13-C3-C4=109.63               H13-C3-H12=104.99              C5-C4-C3=113.05                H14-C4-C3=109.63               
H14-C4-C5=109.61               H15-C4-C3=109.63               H15-C4-C5=109.61               H15-C4-H14=104.99              
C6-C5-C4=112.76                H16-C5-C4=109.27               H16-C5-C6=110.16               H17-C5-C4=109.27               
H17-C5-C6=110.16               H17-C5-H16=104.93              H18-C6-C5=111.22               H19-C6-C5=112.13               
H19-C6-H18=107.47              H20-C6-C5=111.22               H20-C6-H18=107.09              H20-C6-H19=107.47              

 selected dihedral angles (degree)
 ---------------------------------
C3-C2-C1-H7=300.37            C3-C2-C1-H8=180.00            C3-C2-C1-H9= 59.63            H10-C2-C1-H7= 62.73           
H10-C2-C1-H8=302.36           H10-C2-C1-H9=182.00           H11-C2-C1-H7=178.00           H11-C2-C1-H8= 57.64           
H11-C2-C1-H9=297.27           C4-C3-C2-C1=180.00            C4-C3-C2-H10= 57.14           C4-C3-C2-H11=302.86           
H12-C3-C2-C1= 57.37           H12-C3-C2-H10=294.51          H12-C3-C2-H11=180.23          H13-C3-C2-C1=302.63           
H13-C3-C2-H10=179.77          H13-C3-C2-H11= 65.49          C5-C4-C3-C2=180.00            C5-C4-C3-H12=302.62           
C5-C4-C3-H13= 57.38           H14-C4-C3-C2= 57.38           H14-C4-C3-H12=180.00          H14-C4-C3-H13=294.75          
H15-C4-C3-C2=302.62           H15-C4-C3-H12= 65.25          H15-C4-C3-H13=180.00          C6-C5-C4-C3=180.00            
C6-C5-C4-H14=302.63           C6-C5-C4-H15= 57.37           H16-C5-C4-C3=302.85           H16-C5-C4-H14= 65.49          
H16-C5-C4-H15=180.22          H17-C5-C4-C3= 57.14           H17-C5-C4-H14=179.77          H17-C5-C4-H15=294.51          
H18-C6-C5-C4= 59.63           H18-C6-C5-H16=297.27          H18-C6-C5-H17=182.00          H19-C6-C5-C4=180.00           
H19-C6-C5-H16= 57.64          H19-C6-C5-H17=302.36          H20-C6-C5-C4=300.37           H20-C6-C5-H16=178.00          
H20-C6-C5-H17= 62.73          
           -------------------------------------------------
          |                Final Singlepoint                |
           -------------------------------------------------
         :::::::::::::::::::::::::::::::::::::::::::::::::::::
         ::                     SUMMARY                     ::
         :::::::::::::::::::::::::::::::::::::::::::::::::::::
         :: total energy              -2.847021308131 Eh    ::
         :: gradient norm              0.000106783607 Eh/a0 ::
         ::.................................................::
         :: bond energy               -2.993018818302 Eh    ::
         :: angle energy               0.002380170381 Eh    ::
         :: torsion energy             0.000094216048 Eh    ::
         :: repulsion energy           0.159099864686 Eh    ::
         :: electrostat energy        -0.005955902828 Eh    ::
         :: dispersion energy         -0.009791057211 Eh    ::
         :: HB energy                  0.000000000000 Eh    ::
         :: XB energy                  0.000000000000 Eh    ::
         :: bonded atm energy          0.000170219095 Eh    ::
         :: external energy            0.000000000000 Eh    ::
         :: add. restraining           0.000000000000 Eh    ::
         :: total charge               0.000000000000 e     ::
         :::::::::::::::::::::::::::::::::::::::::::::::::::::

           -------------------------------------------------
          |                Property Printout                |
           -------------------------------------------------
           -------------------------------------------------
          |                Geometry Summary                 |
           -------------------------------------------------

      molecular mass/u    :       86.1755859
   center of mass at/Å    :       -0.0000001       0.0000017      -0.0325498
  moments of inertia/u·Å² :        0.3468233E+02   0.4428830E+03   0.4591148E+03
rotational constants/cm⁻¹ :        0.4860582E+00   0.3806340E-01   0.3671768E-01

 * 19 selected distances

     #   Z          #   Z                                           value/Å
     1   6 C        2   6 C                                       1.5207841
     2   6 C        3   6 C                                       1.5295573
     3   6 C        4   6 C                                       1.5288861
     4   6 C        5   6 C                                       1.5295604 (max)
     5   6 C        6   6 C                                       1.5207892
     1   6 C        7   1 H                                       1.0921164
     1   6 C        8   1 H                                       1.0928664
     1   6 C        9   1 H                                       1.0921166
     2   6 C       10   1 H                                       1.0985528
     2   6 C       11   1 H                                       1.0985528
     3   6 C       12   1 H                                       1.0972741
     3   6 C       13   1 H                                       1.0972740
     4   6 C       14   1 H                                       1.0972740
     4   6 C       15   1 H                                       1.0972740
     5   6 C       16   1 H                                       1.0985520
     5   6 C       17   1 H                                       1.0985520
     6   6 C       18   1 H                                       1.0921161 (min)
     6   6 C       19   1 H                                       1.0928667
     6   6 C       20   1 H                                       1.0921162

 * 2 distinct bonds (by element types)

   Z      Z             #   av. dist./Å        max./Å        min./Å
   1 H    6 C          14     1.0955360     1.0985528     1.0921161
   6 C    6 C           5     1.5259154     1.5295604     1.5207841


optimized geometry written to: xtbopt.xyz


           -------------------------------------------------
          | TOTAL ENERGY               -2.847021308131 Eh   |
          | GRADIENT NORM               0.000106783607 Eh/α |
           -------------------------------------------------
########################################################################
[WARNING] Runtime exception occurred
-4- gfnff_ini: Could not initialize fragment charges from file
-3- gfnff_ini: Could not initialize fragment charges from file
-2- gfnff_setup: Could not read topology file.
-1- restart_read_restart_gff: Atom number missmatch in restart file.
########################################################################

------------------------------------------------------------------------
 * finished run on 2025/03/24 at 07:38:24.293     
------------------------------------------------------------------------
 total:
 * wall-time:     0 d,  0 h,  0 min,  0.037 sec
 *  cpu-time:     0 d,  0 h,  0 min,  0.225 sec
 * ratio c/w:     6.149 speedup
 SCF:
 * wall-time:     0 d,  0 h,  0 min,  0.004 sec
 *  cpu-time:     0 d,  0 h,  0 min,  0.024 sec
 * ratio c/w:     6.315 speedup
 ANC optimizer:
 * wall-time:     0 d,  0 h,  0 min,  0.015 sec
 *  cpu-time:     0 d,  0 h,  0 min,  0.122 sec
 * ratio c/w:     8.405 speedup

