20
 energy: -2.842728850192 gnorm: 0.041166986941 xtb: 6.6.0 (conda-forge)
C            3.17140000000000        0.25070000000000        0.10320000000000
C            1.86890000000000       -0.53620000000000       -0.00940000000000
C            0.65330000000000        0.39710000000000        0.02410000000000
C           -0.65330000000000       -0.39710000000000       -0.08920000000000
C           -1.86890000000000        0.53620000000000       -0.05570000000000
C           -3.17140000000000       -0.25070000000000       -0.16830000000000
H            3.26640000000000        0.96300000000000       -0.74390000000000
H            4.03250000000000       -0.44990000000000        0.07620000000000
H            3.20100000000000        0.81300000000000        1.06080000000000
H            1.87620000000000       -1.10860000000000       -0.96260000000000
H            1.81100000000000       -1.25800000000000        0.83440000000000
H            0.71990000000000        1.11830000000000       -0.82030000000000
H            0.65480000000000        0.96880000000000        0.97850000000000
H           -0.71990000000000       -1.11830000000000        0.75520000000000
H           -0.65480000000000       -0.96880000000000       -1.04360000000000
H           -1.87620000000000        1.10860000000000        0.89750000000000
H           -1.81100000000000        1.25800000000000       -0.89950000000000
H           -3.26640000000000       -0.96300000000000        0.67880000000000
H           -4.03250000000000        0.44990000000000       -0.14130000000000
H           -3.20100000000000       -0.81300000000000       -1.12590000000000
20
 energy: -2.846050045713 gnorm: 0.017663700050 xtb: 6.6.0 (conda-forge)
C            3.18116747708160        0.24760089608857        0.10330528593685
C            1.87721518153837       -0.53141565494346       -0.00870106660748
C            0.65585219780463        0.38986630562914        0.02360142497566
C           -0.65589693184737       -0.38982482605965       -0.08869997123642
C           -1.87724828662735        0.53147984765602       -0.05639408970409
C           -3.18110616154607       -0.24769957091653       -0.16841161638198
H            3.28023305423547        0.95720824681137       -0.72865057825409
H            4.04242735254861       -0.43356677337005        0.07791972919867
H            3.21592244995708        0.80970769977827        1.04583401785040
H            1.87473410266405       -1.10955591728167       -0.94774252089536
H            1.81064357880830       -1.25646706704839        0.81951240186683
H            0.72215648935020        1.11404228437585       -0.80430678134253
H            0.65819315628898        0.96721747355606        0.96220063384736
H           -0.72221989547458       -1.11399836748064        0.73921042624046
H           -0.65825642928025       -0.96717225762306       -1.02730277302490
H           -1.87478438749809        1.10953028013410        0.88269981083747
H           -1.81068997566242        1.25645361016447       -0.88467339032058
H           -3.28018142634042       -0.95723928997817        0.66359884202567
H           -4.04229458370944        0.43356141181939       -0.14301485955731
H           -3.21586696229129       -0.80972833131164       -1.11098492545462
20
 energy: -2.846942595883 gnorm: 0.006869395960 xtb: 6.6.0 (conda-forge)
C            3.19112088146518        0.24423968397660        0.10339381874302
C            1.88509685937008       -0.52763160523794       -0.00810147614629
C            0.65824659920249        0.38414702941990        0.02322320301230
C           -0.65829009416455       -0.38407451062663       -0.08831937609492
C           -1.88514356370287        0.52771850577151       -0.05699172061025
C           -3.19104581609973       -0.24437860496706       -0.16850320684394
H            3.29603650017963        0.95513597129475       -0.71652670069122
H            4.05690694288418       -0.41953604136618        0.07960863895845
H            3.23256484005977        0.80956435505817        1.03470091542085
H            1.87343189810848       -1.11487566211176       -0.93506334862890
H            1.81032020093925       -1.25960504689971        0.80606398867722
H            0.72474372431774        1.11523559710884       -0.79031615806977
H            0.66173958011609        0.97068738238515        0.94880703265898
H           -0.72481640508940       -1.11515840087794        0.72522308326566
H           -0.66181238839693       -0.97060785504545       -1.01390860633513
H           -1.87350958646369        1.11481702928132        0.87005724698914
H           -1.81039123485898        1.25956658825858       -0.87126598541740
H           -3.29596807806551       -0.95517539131453        0.65149931960815
H           -4.05674058914053        0.41951910707744       -0.14470355475657
H           -3.23249027066071       -0.80958813118507       -1.09987711373938
20
 energy: -2.847003849501 gnorm: 0.003457104783 xtb: 6.6.0 (conda-forge)
C            3.19328948567295        0.24338534682182        0.10340215463353
C            1.88666382410046       -0.52732195690420       -0.00801878355638
C            0.65873128444619        0.38362018563028        0.02319919548864
C           -0.65875322395223       -0.38355790162775       -0.08829549349500
C           -1.88669899377056        0.52738447402735       -0.05707585402833
C           -3.19324133268601       -0.24348694105211       -0.16850942217091
H            3.30021807035335        0.95629726990460       -0.71543848060386
H            4.06183987525457       -0.41780459707505        0.07992753633291
H            3.23680750779348        0.81086611182973        1.03412471604257
H            1.87397522055928       -1.11792945237355       -0.93331312774335
H            1.81101283234879       -1.26233286562004        0.80387969935116
H            0.72557001721212        1.11784266987265       -0.78824840993718
H            0.66268981977273        0.97360015558640        0.94726521282678
H           -0.72561249511319       -1.11777758110781        0.72315339501798
H           -0.66273291298379       -0.97353269438451       -1.01236507043644
H           -1.87403526265255        1.11787233393392        0.86829111735604
H           -1.81106725370789        1.26229338237280       -0.86906389050677
H           -3.30017171244096       -0.95632486401640        0.65039298199328
H           -4.06172872057168        0.41778806707116       -0.14502471702601
H           -3.23675602963507       -0.81088114288927       -1.09928275953866
20
 energy: -2.847020987783 gnorm: 0.000287163974 xtb: 6.6.0 (conda-forge)
C            3.19412759038191        0.24284158618897        0.10338739131364
C            1.88730286551240       -0.52725175192498       -0.00798897416316
C            0.65889359479775        0.38363134502559        0.02320780865349
C           -0.65889351790270       -0.38359609542122       -0.08830548215430
C           -1.88731846557394        0.52727743659002       -0.05710803912909
C           -3.19411507670220       -0.24288194646901       -0.16849084271872
H            3.30258966176837        0.95742832683894       -0.71523727324123
H            4.06463633921115       -0.41736216678545        0.08006111585499
H            3.23918184830259        0.81200255998771        1.03428519193968
H            1.87478017911162       -1.12043143400854       -0.93246195607270
H            1.81189550565642       -1.26466530413320        0.80269221860558
H            0.72603371983340        1.12026794745133       -0.78718896462672
H            0.66320981913005        0.97616580890208        0.94666217504218
H           -0.72603940087799       -1.12023301998514        0.72209033975456
H           -0.66321655223067       -0.97612878364554       -1.01176079545268
H           -1.87480747519168        1.12039301648144        0.86740471379897
H           -1.81191958084502        1.26463816653686       -0.86783633416386
H           -3.30257407021086       -0.95743902887485        0.65015952550776
H           -4.06460370846930        0.41734996824587       -0.14516120225697
H           -3.23916327570129       -0.81200663100090       -1.09941061649144
20
 energy: -2.847021308131 gnorm: 0.000106783607 xtb: 6.6.0 (conda-forge)
C            3.19369090953993        0.24286851064416        0.10337344125414
C            1.88704865786344       -0.52723963008062       -0.00799617275089
C            0.65878236366992        0.38376682844314        0.02321590133910
C           -0.65877958556230       -0.38375094648227       -0.08831493549683
C           -1.88705422429156        0.52724946401829       -0.05710198047672
C           -3.19368890850217       -0.24288110652782       -0.16847495010635
H            3.30227485916432        0.95748044372029       -0.71531902461466
H            4.06405796422830       -0.41764071305915        0.08001511760991
H            3.23886267276018        0.81204275196714        1.03435065251252
H            1.87500405442951       -1.12062626867084       -0.93242321153742
H            1.81212275527885       -1.26485085463181        0.80264179908503
H            0.72593674942380        1.12052732670959       -0.78714475292990
H            0.66311414389221        0.97642571778189        0.94665877032968
H           -0.72593416398634       -1.12051285855706        0.72204431432318
H           -0.66311256693127       -0.97640947384810       -1.01175795672831
H           -1.87501469234670        1.12060746616109        0.86734255325638
H           -1.81213181303525        1.26483874318228       -0.86775913244977
H           -3.30227007300967       -0.95748451697764        0.65022484805553
H           -4.06405291953720        0.41763251994871       -0.14511600271377
H           -3.23885618304801       -0.81204340374126       -1.09945927796084
