title                                                                   
Freq      UB3LYP                                                      Aug-CC-pVTZ         
Number of atoms                            I                1
Info1-9                                    I   N=           9
          10           8        1002           0           0         100
           6          18        -502
Full Title                                 C   N=           1
title       
Route                                      C   N=           3
#p b3lyp aug-cc-pvtz opt freq       
Charge                                     I                0
Multiplicity                               I                5
Number of electrons                        I               26
Number of alpha electrons                  I               15
Number of beta electrons                   I               11
Number of basis functions                  I               93
Number of independent functions            I               93
Number of point charges in /Mol/           I                0
Number of translation vectors              I                0
Atomic numbers                             I   N=           1
          26
Nuclear charges                            R   N=           1
  2.60000000E+01
Current cartesian coordinates              R   N=           3
  0.00000000E+00  0.00000000E+00  0.00000000E+00
Number of symbols in /Mol/                 I                0
Int Atom Types                             I   N=           1
           0
Force Field                                I                0
Atom Types                                 C   N=           1
            
MM charges                                 R   N=           1
  0.00000000E+00
Integer atomic weights                     I   N=           1
          56
Real atomic weights                        R   N=           1
  5.59349393E+01
Atom fragment info                         I   N=           1
           0
Atom residue num                           I   N=           1
           0
Nuclear spins                              I   N=           1
           0
Nuclear ZEff                               R   N=           1
 -2.52200000E+01
Nuclear ZNuc                               R   N=           1
  2.60000000E+01
Nuclear QMom                               R   N=           1
  0.00000000E+00
Nuclear GFac                               R   N=           1
  0.00000000E+00
MicOpt                                     I   N=           1
          -1
Number of residues                         I                0
Number of secondary structures             I                0
SymInf integers                            I   N=          26
           1           8           1           1           1           1
          -1          -1          -1           1          -1          -1
          -1           1          -1          -1          -1          -1
           1           1           1          -1           1           1
           1          -1
RotTr to input orientation                 R   N=          12
  0.00000000E+00  0.00000000E+00 -1.00000000E+00  0.00000000E+00  1.00000000E+00
  0.00000000E+00  1.00000000E+00  0.00000000E+00  0.00000000E+00  0.00000000E+00
  0.00000000E+00  0.00000000E+00
Number of contracted shells                I               25
Number of primitive shells                 I              140
Pure/Cartesian d shells                    I                0
Pure/Cartesian f shells                    I                0
Highest angular momentum                   I                4
Largest degree of contraction              I               14
Shell types                                I   N=          25
           0           0           0           0           0           0
           0           0           1           1           1           1
           1           1           1          -2          -2          -2
          -2          -2          -3          -3          -3          -4
          -4
Number of primitives per shell             I   N=          25
          14          11          11           7           9          11
           1           1          11          11           9           9
          11           1           1           5           5           5
           1           1           1           1           1           1
           1
Shell to atom map                          I   N=          25
           1           1           1           1           1           1
           1           1           1           1           1           1
           1           1           1           1           1           1
           1           1           1           1           1           1
           1
Primitive exponents                        R   N=         140
  4.31626500E+06  6.46342400E+05  1.47089700E+05  4.16615200E+04  1.35907700E+04
  4.90575000E+03  1.91274600E+03  7.92604300E+02  3.44806500E+02  1.55899900E+02
  7.22309100E+01  3.27250600E+01  7.50348300E+00  3.31222300E+00  1.35907700E+04
  4.90575000E+03  1.91274600E+03  7.92604300E+02  3.44806500E+02  1.55899900E+02
  7.22309100E+01  3.27250600E+01  1.56676200E+01  7.50348300E+00  3.31222300E+00
  1.35907700E+04  4.90575000E+03  1.91274600E+03  3.44806500E+02  7.22309100E+01
  3.27250600E+01  1.56676200E+01  7.50348300E+00  3.31222300E+00  1.55847100E+00
  6.83914000E-01  7.22309100E+01  1.56676200E+01  3.31222300E+00  1.55847100E+00
  6.83914000E-01  1.46757000E-01  7.05830000E-02  1.91274600E+03  3.44806500E+02
  7.22309100E+01  1.56676200E+01  7.50348300E+00  3.31222300E+00  1.55847100E+00
  6.83914000E-01  7.05830000E-02  1.35907700E+04  4.90575000E+03  1.91274600E+03
  3.44806500E+02  1.55899900E+02  7.22309100E+01  3.27250600E+01  1.56676200E+01
  7.50348300E+00  3.31222300E+00  6.83914000E-01  3.14490000E-02  1.40100000E-02
  1.77456900E+04  4.20072100E+03  1.36442900E+03  5.22080600E+02  2.21459500E+02
  1.00909600E+02  4.84011500E+01  2.39853600E+01  1.21825000E+01  6.24229800E+00
  3.11094400E+00  1.77456900E+04  4.20072100E+03  5.22080600E+02  2.21459500E+02
  1.00909600E+02  4.84011500E+01  2.39853600E+01  1.21825000E+01  6.24229800E+00
  3.11094400E+00  7.10845000E-01  5.22080600E+02  2.21459500E+02  4.84011500E+01
  1.21825000E+01  6.24229800E+00  3.11094400E+00  1.50995800E+00  7.10845000E-01
  2.73190000E-01  5.22080600E+02  2.21459500E+02  4.84011500E+01  1.21825000E+01
  3.11094400E+00  1.50995800E+00  7.10845000E-01  2.73190000E-01  1.04233000E-01
  1.77456900E+04  4.20072100E+03  5.22080600E+02  2.21459500E+02  4.84011500E+01
  2.39853600E+01  1.21825000E+01  6.24229800E+00  3.11094400E+00  1.50995800E+00
  7.10845000E-01  3.82910000E-02  1.40700000E-02  3.36414000E+01  1.23310000E+01
  4.99478000E+00  2.07280000E+00  8.30753000E-01  3.36414000E+01  4.99478000E+00
  2.07280000E+00  8.30753000E-01  3.09178000E-01  1.13344000E+02  3.36414000E+01
  1.23310000E+01  4.99478000E+00  2.07280000E+00  1.00130000E-01  3.24300000E-02
  3.27580000E+00  7.92000000E-01  2.74900000E-01  2.08970000E+00  7.87160000E-01
Contraction coefficients                   R   N=         140
  8.66114533E-06  6.73442104E-05  3.54066855E-04  1.49304249E-03  5.40718493E-03
  1.73415706E-02  4.95066840E-02  1.22946632E-01  2.49092117E-01  3.58206092E-01
  2.77065732E-01  6.72843621E-02  3.10209382E-03 -7.53499999E-04 -6.28134550E-06
 -6.74677407E-05 -5.45208666E-04 -3.35928476E-03 -1.64324812E-02 -5.73945730E-02
 -1.02064908E-01  6.16440338E-02  4.92483467E-01  4.83499047E-01  8.83143531E-02
 -1.02863356E-05  4.39553216E-06 -1.44207641E-04 -1.63651018E-03 -6.29017070E-03
  1.53278729E-02 -1.12027029E-01 -2.42773882E-01  2.14776083E-01  1.37182175E+00
 -4.43199374E-01 -1.18845566E-06  5.75742158E-04  1.24456550E-02 -2.84976670E-02
 -2.94696544E-01  6.05100809E-01  5.65057734E-01  1.02647538E-06  1.17239312E-05
  4.10441049E-05 -8.87139978E-04 -1.08367072E-02  4.36540277E-02  1.09404321E-01
  4.48544996E-03 -1.02614315E+00  7.46589580E-06 -3.43061933E-06  1.03584503E-04
  1.27564203E-03  1.06383120E-03  9.21884276E-03 -1.19421600E-02 -4.72365765E-02
 -1.89717416E-01  8.37676487E-02  1.02206679E+00  1.00000000E+00  1.00000000E+00
  4.09262299E-05  3.68367061E-04  2.12535415E-03  9.35275494E-03  3.30391894E-02
  9.42605531E-02  2.07689480E-01  3.31675117E-01  3.32324578E-01  1.56966845E-01
  2.31316804E-02 -2.87435816E-06 -3.67016588E-06 -2.08767594E-04 -9.03669773E-05
 -2.91465316E-03 -1.85900539E-03 -1.99488641E-02  1.15282838E-02 -5.21521764E-03
  1.26058616E-01  9.28574642E-01 -1.09450410E-05  2.70187750E-05  6.59819438E-04
  4.62654050E-05 -8.83820014E-03  2.94323579E-02  3.37246830E-02 -2.03280308E-01
 -8.61330450E-01  3.27008627E-06 -1.75679978E-06 -1.22549034E-04  2.78827925E-04
 -1.39578197E-02 -2.89316251E-02  3.75904011E-02  4.21477311E-01  6.31379463E-01
 -1.63949550E-06 -3.84875479E-06 -1.53173978E-04  3.10102414E-04  9.23649781E-03
  1.05437183E-02  4.61096683E-02 -1.47295636E-01 -4.55565762E-01 -7.65076663E-01
  4.07866692E-01  1.00000000E+00  1.00000000E+00 -2.69251673E-04 -8.32269479E-03
 -1.31792922E-02  2.93374531E-01  7.78840812E-01  8.13000354E-05 -6.20575908E-03
 -3.76415851E-02  1.69552835E-01  8.92167365E-01  6.68127091E-03  4.89684690E-02
  1.94020188E-01  4.65770086E-01  4.68774806E-01  1.00000000E+00  1.00000000E+00
  1.00000000E+00  1.00000000E+00  1.00000000E+00  1.00000000E+00  1.00000000E+00
Coordinates of each shell                  R   N=          75
  0.00000000E+00  0.00000000E+00  0.00000000E+00  0.00000000E+00  0.00000000E+00
  0.00000000E+00  0.00000000E+00  0.00000000E+00  0.00000000E+00  0.00000000E+00
  0.00000000E+00  0.00000000E+00  0.00000000E+00  0.00000000E+00  0.00000000E+00
  0.00000000E+00  0.00000000E+00  0.00000000E+00  0.00000000E+00  0.00000000E+00
  0.00000000E+00  0.00000000E+00  0.00000000E+00  0.00000000E+00  0.00000000E+00
  0.00000000E+00  0.00000000E+00  0.00000000E+00  0.00000000E+00  0.00000000E+00
  0.00000000E+00  0.00000000E+00  0.00000000E+00  0.00000000E+00  0.00000000E+00
  0.00000000E+00  0.00000000E+00  0.00000000E+00  0.00000000E+00  0.00000000E+00
  0.00000000E+00  0.00000000E+00  0.00000000E+00  0.00000000E+00  0.00000000E+00
  0.00000000E+00  0.00000000E+00  0.00000000E+00  0.00000000E+00  0.00000000E+00
  0.00000000E+00  0.00000000E+00  0.00000000E+00  0.00000000E+00  0.00000000E+00
  0.00000000E+00  0.00000000E+00  0.00000000E+00  0.00000000E+00  0.00000000E+00
  0.00000000E+00  0.00000000E+00  0.00000000E+00  0.00000000E+00  0.00000000E+00
  0.00000000E+00  0.00000000E+00  0.00000000E+00  0.00000000E+00  0.00000000E+00
  0.00000000E+00  0.00000000E+00  0.00000000E+00  0.00000000E+00  0.00000000E+00
Num ILSW                                   I              100
ILSW                                       I   N=         100
           1           0           0           0           2           0
           0           0           0           0         402          -1
           5           0           0           0           2           0
           0           0           0           0           1           0
           1           0           0           0           0           0
           0           0      100000           0          -1           0
           0           0           0           0           0           0
           0           0           0           1           0           0
           0 -2000000000           1           0           0           0
           0           1           4          52           0           0
           0           0           5           0           0           0
           0           0           0           1           0           1
           0           0           0           0           0           0
           0           0           0           0           0           0
           0           0           0           0           0           0
           0           0           0           0           0           0
           0           0           0           0
Num RLSW                                   I               52
RLSW                                       R   N=          52
  8.00000000E-01  7.20000000E-01  1.00000000E+00  8.10000000E-01  2.00000000E-01
  0.00000000E+00  0.00000000E+00  1.00000000E+00  0.00000000E+00  0.00000000E+00
  0.00000000E+00  0.00000000E+00  1.00000000E+00  0.00000000E+00  0.00000000E+00
  0.00000000E+00  0.00000000E+00  1.00000000E+00  0.00000000E+00  0.00000000E+00
  0.00000000E+00  0.00000000E+00  1.00000000E+00  0.00000000E+00  0.00000000E+00
  0.00000000E+00  0.00000000E+00  1.00000000E+00  0.00000000E+00  0.00000000E+00
  0.00000000E+00  0.00000000E+00  1.00000000E+00  0.00000000E+00  0.00000000E+00
  0.00000000E+00  0.00000000E+00  0.00000000E+00  1.00000000E+00  1.00000000E+00
  0.00000000E+00  1.00000000E+00  0.00000000E+00  0.00000000E+00  0.00000000E+00
  0.00000000E+00  0.00000000E+00  0.00000000E+00  0.00000000E+00  0.00000000E+00
  0.00000000E+00  0.00000000E+00
MxBond                                     I                1
NBond                                      I   N=           1
           0
IBond                                      I   N=           1
           0
RBond                                      R   N=           1
  0.00000000E+00
Virial Ratio                               R      2.001355403733176E+00
SCF Energy                                 R     -1.263706240474122E+03
Total Energy                               R     -1.263706240474122E+03
S**2                                       R      6.005519119412654E+00
S**2 after annihilation                    R      6.000007773859544E+00
RMS Density                                R      2.692324757444396E-09
NImag                                      I                0
Job Status                                 I                1
Nuclear derivative order                   I                2
Thermal Energy                             R     -1.263704824196902E+03
Thermal Enthalpy                           R     -1.263703880012088E+03
Thermal Free Energy                        R     -1.263723448093883E+03
External E-field                           R   N=          35
  0.00000000E+00  0.00000000E+00  0.00000000E+00  0.00000000E+00  0.00000000E+00
  0.00000000E+00  0.00000000E+00  0.00000000E+00  0.00000000E+00  0.00000000E+00
  0.00000000E+00  0.00000000E+00  0.00000000E+00  0.00000000E+00  0.00000000E+00
  0.00000000E+00  0.00000000E+00  0.00000000E+00  0.00000000E+00  0.00000000E+00
  0.00000000E+00  0.00000000E+00  0.00000000E+00  0.00000000E+00  0.00000000E+00
  0.00000000E+00  0.00000000E+00  0.00000000E+00  0.00000000E+00  0.00000000E+00
  0.00000000E+00  0.00000000E+00  0.00000000E+00  0.00000000E+00  0.00000000E+00
IOpCl                                      I                1
IROHF                                      I                0
Alpha Orbital Energies                     R   N=          93
 -2.55975749E+02 -2.99250041E+01 -2.57919256E+01 -2.57919256E+01 -2.57636077E+01
 -3.41515452E+00 -2.21236263E+00 -2.21236263E+00 -2.15335229E+00 -2.64424261E-01
 -2.64424255E-01 -2.34155858E-01 -2.08734303E-01 -2.08734302E-01 -1.85499762E-01
 -2.68205229E-02 -2.68205228E-02 -2.18869175E-02  7.85461579E-03  3.26495826E-02
  3.26495826E-02  3.49938119E-02  6.29762857E-02  6.29762859E-02  6.40835892E-02
  6.40835894E-02  6.47117928E-02  1.15363184E-01  1.85731733E-01  1.85731733E-01
  1.92239720E-01  2.73945355E-01  2.73945356E-01  2.80251028E-01  2.81709117E-01
  2.81709117E-01  5.12631099E-01  7.58147314E-01  7.58147314E-01  7.74882221E-01
  8.35321155E-01  8.35321155E-01  8.45700805E-01  8.45700805E-01  8.46765116E-01
  8.46997750E-01  8.46997750E-01  1.11244164E+00  1.11244165E+00  1.12887268E+00
  1.13949123E+00  1.13949123E+00  2.66172905E+00  2.66172905E+00  2.69200439E+00
  2.69487063E+00  2.69487063E+00  2.69632518E+00  2.69632518E+00  2.90200134E+00
  3.00758578E+00  3.00758578E+00  3.04304392E+00  3.30450512E+00  3.30450512E+00
  3.32850164E+00  3.32850164E+00  3.32987091E+00  3.33262280E+00  3.33262280E+00
  3.33343784E+00  3.33343784E+00  4.51465668E+00  4.51465669E+00  4.54148369E+00
  4.56062843E+00  4.56062843E+00  8.93171474E+00  8.93171474E+00  8.98382431E+00
  8.99200329E+00  8.99200329E+00  8.99535335E+00  8.99535335E+00  9.65210199E+00
  9.65210199E+00  9.70201825E+00  9.70201825E+00  9.70304984E+00  9.70693398E+00
  9.70693398E+00  9.71130565E+00  9.71130565E+00
Beta Orbital Energies                      R   N=          93
 -2.55973521E+02 -2.98684424E+01 -2.57399442E+01 -2.57399442E+01 -2.57277007E+01
 -3.27591060E+00 -2.04841462E+00 -2.04841462E+00 -2.04290448E+00 -1.46034965E-01
 -1.46034962E-01 -1.02068766E-01 -9.80609490E-03 -8.75694927E-03 -8.75694898E-03
 -1.32976387E-03 -1.30410640E-03  1.28649889E-02  3.12503051E-02  4.30238034E-02
  4.34934294E-02  4.34934296E-02  6.37818370E-02  6.37818376E-02  7.29595665E-02
  7.31222271E-02  8.12896554E-02  1.28077600E-01  2.08037011E-01  2.08037011E-01
  2.08487024E-01  2.94398586E-01  2.94398586E-01  3.13677829E-01  3.13907713E-01
  3.26906583E-01  5.44991347E-01  8.01801675E-01  8.01801676E-01  8.05504115E-01
  8.65951406E-01  8.65967144E-01  8.82767598E-01  8.82767598E-01  8.83442520E-01
  8.83442520E-01  8.87741038E-01  1.17327434E+00  1.17327434E+00  1.19667358E+00
  1.19669720E+00  1.22200683E+00  2.74078607E+00  2.74078916E+00  2.76301053E+00
  2.76301053E+00  2.76456883E+00  2.76456883E+00  2.77583758E+00  2.97946718E+00
  3.08974660E+00  3.08974660E+00  3.10175249E+00  3.36510601E+00  3.36510601E+00
  3.37577794E+00  3.37580059E+00  3.38000568E+00  3.38002156E+00  3.38508423E+00
  3.38508423E+00  3.39475716E+00  4.60949370E+00  4.60949370E+00  4.63345736E+00
  4.63346268E+00  4.66984373E+00  9.07164035E+00  9.07164072E+00  9.10217045E+00
  9.10217045E+00  9.10750849E+00  9.10750850E+00  9.12621624E+00  9.76705489E+00
  9.76705489E+00  9.78289482E+00  9.78290031E+00  9.78369522E+00  9.78369919E+00
  9.79639941E+00  9.79639941E+00  9.80857665E+00
Alpha MO coefficients                      R   N=        8649
  1.00066795E+00 -2.26435590E-03 -3.19925235E-05 -7.21661393E-04 -9.08079492E-04
  1.61202872E-04 -3.25270623E-04  1.04102714E-04  0.00000000E+00  0.00000000E+00
  0.00000000E+00  0.00000000E+00  0.00000000E+00  0.00000000E+00  0.00000000E+00
  0.00000000E+00  0.00000000E+00  0.00000000E+00  0.00000000E+00  0.00000000E+00
  0.00000000E+00  0.00000000E+00  0.00000000E+00  0.00000000E+00  0.00000000E+00
  0.00000000E+00  0.00000000E+00  0.00000000E+00  0.00000000E+00  3.35191628E-06
  0.00000000E+00  0.00000000E+00 -1.83909131E-14  0.00000000E+00 -1.94679634E-06
  0.00000000E+00  0.00000000E+00  1.14682225E-14  0.00000000E+00 -3.74556870E-06
  0.00000000E+00  0.00000000E+00  3.19226735E-14  0.00000000E+00  8.17931867E-07
  0.00000000E+00  0.00000000E+00 -4.82346818E-15  0.00000000E+00 -2.83126534E-07
  0.00000000E+00  0.00000000E+00  1.72327964E-15  0.00000000E+00  0.00000000E+00
  0.00000000E+00  0.00000000E+00  0.00000000E+00  0.00000000E+00  0.00000000E+00
  0.00000000E+00  0.00000000E+00  0.00000000E+00  0.00000000E+00  0.00000000E+00
  0.00000000E+00  0.00000000E+00  0.00000000E+00  0.00000000E+00  0.00000000E+00
  0.00000000E+00  0.00000000E+00  0.00000000E+00  0.00000000E+00  0.00000000E+00
 -3.49678877E-09  0.00000000E+00  0.00000000E+00  1.76310312E-15  0.00000000E+00
  0.00000000E+00  0.00000000E+00 -1.84827963E-15  0.00000000E+00 -1.36837645E-09
  0.00000000E+00  0.00000000E+00 -2.24437884E-16  0.00000000E+00  0.00000000E+00
  0.00000000E+00 -3.54199355E-16  0.00000000E+00 -3.02915117E-01  1.04151028E+00
  7.92790827E-03  1.60703665E-02  1.96489559E-02 -2.75492789E-03  6.61918245E-03
 -2.07178705E-03  0.00000000E+00  0.00000000E+00  0.00000000E+00  0.00000000E+00
  0.00000000E+00  0.00000000E+00  0.00000000E+00  0.00000000E+00  0.00000000E+00
  0.00000000E+00  0.00000000E+00  0.00000000E+00  0.00000000E+00  0.00000000E+00
  0.00000000E+00  0.00000000E+00  0.00000000E+00  0.00000000E+00  0.00000000E+00
  0.00000000E+00  0.00000000E+00  5.74815232E-04  0.00000000E+00  0.00000000E+00
 -3.32981888E-12  0.00000000E+00 -3.02873417E-04  0.00000000E+00  0.00000000E+00
  1.94795364E-12  0.00000000E+00 -9.72326623E-04  0.00000000E+00  0.00000000E+00
  4.57244053E-12  0.00000000E+00  1.23873676E-04  0.00000000E+00  0.00000000E+00
 -7.50901047E-13  0.00000000E+00 -4.26845578E-05  0.00000000E+00  0.00000000E+00
  2.66690914E-13  0.00000000E+00  0.00000000E+00  0.00000000E+00  0.00000000E+00
  0.00000000E+00  0.00000000E+00  0.00000000E+00  0.00000000E+00  0.00000000E+00
  0.00000000E+00  0.00000000E+00  0.00000000E+00  0.00000000E+00  0.00000000E+00
  0.00000000E+00  0.00000000E+00  0.00000000E+00  0.00000000E+00  0.00000000E+00
  0.00000000E+00  0.00000000E+00  0.00000000E+00  7.83177374E-05  0.00000000E+00
  0.00000000E+00 -1.36404209E-12  0.00000000E+00  0.00000000E+00  0.00000000E+00
  3.04438020E-12  0.00000000E+00 -3.27984241E-05  0.00000000E+00  0.00000000E+00
  5.20934088E-13  0.00000000E+00  0.00000000E+00  0.00000000E+00 -1.09814314E-12
  0.00000000E+00  0.00000000E+00  0.00000000E+00  0.00000000E+00  0.00000000E+00
  0.00000000E+00  0.00000000E+00  0.00000000E+00  0.00000000E+00  9.97186350E-01
  0.00000000E+00  0.00000000E+00 -3.31776287E-03  0.00000000E+00  0.00000000E+00
 -4.79679059E-03  0.00000000E+00  0.00000000E+00 -2.52145475E-03  0.00000000E+00
  0.00000000E+00 -7.28716799E-03  0.00000000E+00  0.00000000E+00  7.21303564E-04
  0.00000000E+00  0.00000000E+00 -2.31004942E-04  0.00000000E+00  0.00000000E+00
  0.00000000E+00  0.00000000E+00  0.00000000E+00  0.00000000E+00  0.00000000E+00
  0.00000000E+00  0.00000000E+00  0.00000000E+00  0.00000000E+00  0.00000000E+00
  0.00000000E+00  0.00000000E+00  0.00000000E+00  0.00000000E+00  0.00000000E+00
  0.00000000E+00  0.00000000E+00  0.00000000E+00  0.00000000E+00  0.00000000E+00
  0.00000000E+00  0.00000000E+00  0.00000000E+00  0.00000000E+00  0.00000000E+00
  0.00000000E+00 -3.20068758E-04  0.00000000E+00  0.00000000E+00  0.00000000E+00
  5.65135782E-12  0.00000000E+00  0.00000000E+00  8.47286081E-05  0.00000000E+00
  0.00000000E+00  0.00000000E+00 -1.50500569E-12  0.00000000E+00  0.00000000E+00
 -3.45585966E-05  0.00000000E+00  0.00000000E+00  0.00000000E+00  7.55569266E-13
  0.00000000E+00  0.00000000E+00  0.00000000E+00  0.00000000E+00  0.00000000E+00
  0.00000000E+00  0.00000000E+00  0.00000000E+00  0.00000000E+00  0.00000000E+00
  0.00000000E+00  0.00000000E+00  0.00000000E+00  0.00000000E+00  0.00000000E+00
  0.00000000E+00  0.00000000E+00  0.00000000E+00  0.00000000E+00  0.00000000E+00
  0.00000000E+00  0.00000000E+00  0.00000000E+00  0.00000000E+00  0.00000000E+00
  0.00000000E+00  0.00000000E+00  0.00000000E+00  9.97186350E-01  0.00000000E+00
  0.00000000E+00 -3.31776287E-03  0.00000000E+00  0.00000000E+00 -4.79679059E-03
  0.00000000E+00  0.00000000E+00 -2.52145475E-03  0.00000000E+00  0.00000000E+00
 -7.28716799E-03  0.00000000E+00  0.00000000E+00  7.21303564E-04  0.00000000E+00
  0.00000000E+00 -2.31004942E-04  0.00000000E+00  0.00000000E+00  0.00000000E+00
  0.00000000E+00  0.00000000E+00  0.00000000E+00  0.00000000E+00  0.00000000E+00
  0.00000000E+00  0.00000000E+00  0.00000000E+00  0.00000000E+00  0.00000000E+00
  0.00000000E+00  0.00000000E+00  0.00000000E+00  0.00000000E+00  0.00000000E+00
  0.00000000E+00  0.00000000E+00  0.00000000E+00  0.00000000E+00  0.00000000E+00
  0.00000000E+00  0.00000000E+00  0.00000000E+00  0.00000000E+00  0.00000000E+00
 -3.20068754E-04  0.00000000E+00  0.00000000E+00  0.00000000E+00 -2.58558745E-12
  0.00000000E+00  0.00000000E+00  8.47286070E-05  0.00000000E+00  0.00000000E+00
  0.00000000E+00  6.22102521E-14  0.00000000E+00  0.00000000E+00 -3.45585961E-05
  0.00000000E+00  0.00000000E+00  0.00000000E+00 -1.36010249E-13  0.00000000E+00
  0.00000000E+00  0.00000000E+00  0.00000000E+00  0.00000000E+00  0.00000000E+00
  0.00000000E+00  0.00000000E+00  0.00000000E+00  0.00000000E+00  0.00000000E+00
  0.00000000E+00  0.00000000E+00  0.00000000E+00  0.00000000E+00  0.00000000E+00
  0.00000000E+00  0.00000000E+00  0.00000000E+00  0.00000000E+00  0.00000000E+00
  0.00000000E+00  0.00000000E+00  0.00000000E+00  0.00000000E+00  0.00000000E+00
  0.00000000E+00  0.00000000E+00  9.97437544E-01  0.00000000E+00  0.00000000E+00
 -2.89211592E-03  0.00000000E+00  0.00000000E+00 -4.25243636E-03  0.00000000E+00
  0.00000000E+00 -2.22574660E-03  0.00000000E+00  0.00000000E+00 -6.59864826E-03
  0.00000000E+00  0.00000000E+00  6.35576499E-04  0.00000000E+00  0.00000000E+00
 -2.03293091E-04  0.00000000E+00  0.00000000E+00  0.00000000E+00  0.00000000E+00
  0.00000000E+00  0.00000000E+00  0.00000000E+00  0.00000000E+00  0.00000000E+00
  0.00000000E+00  0.00000000E+00  0.00000000E+00  0.00000000E+00  0.00000000E+00
  0.00000000E+00  0.00000000E+00  0.00000000E+00  0.00000000E+00  0.00000000E+00
  0.00000000E+00  0.00000000E+00  0.00000000E+00  0.00000000E+00  0.00000000E+00
  0.00000000E+00 -8.15698991E-05  0.00000000E+00  0.00000000E+00 -1.73733486E-12
  0.00000000E+00  0.00000000E+00  0.00000000E+00  2.44261184E-05  0.00000000E+00
  0.00000000E+00  3.23277604E-14  0.00000000E+00  0.00000000E+00  0.00000000E+00
 -1.03469166E-05  0.00000000E+00  0.00000000E+00 -1.03052474E-15  0.00000000E+00
  0.00000000E+00  0.00000000E+00  0.00000000E+00  0.00000000E+00  0.00000000E+00
  0.00000000E+00  0.00000000E+00  0.00000000E+00  0.00000000E+00  0.00000000E+00
  0.00000000E+00  0.00000000E+00  0.00000000E+00  0.00000000E+00  0.00000000E+00
  0.00000000E+00  0.00000000E+00  0.00000000E+00  0.00000000E+00  0.00000000E+00
  1.13480087E-01 -4.41065054E-01  5.19986383E-01  5.91613973E-02  5.85582398E-02
  6.35244167E-01  1.32642984E-02 -3.82869060E-03  0.00000000E+00  0.00000000E+00
  0.00000000E+00  0.00000000E+00  0.00000000E+00  0.00000000E+00  0.00000000E+00
  0.00000000E+00  0.00000000E+00  0.00000000E+00  0.00000000E+00  0.00000000E+00
  0.00000000E+00  0.00000000E+00  0.00000000E+00  0.00000000E+00  0.00000000E+00
  0.00000000E+00  0.00000000E+00  0.00000000E+00  0.00000000E+00 -6.96625145E-03
  0.00000000E+00  0.00000000E+00  7.50165566E-11  0.00000000E+00  1.55928975E-03
  0.00000000E+00  0.00000000E+00  9.05772358E-12  0.00000000E+00 -7.92836392E-03
  0.00000000E+00  0.00000000E+00  3.04274572E-11  0.00000000E+00 -7.34855600E-04
  0.00000000E+00  0.00000000E+00  9.43105511E-12  0.00000000E+00  2.63861118E-04
  0.00000000E+00  0.00000000E+00 -2.33912812E-12  0.00000000E+00  0.00000000E+00
  0.00000000E+00  0.00000000E+00  0.00000000E+00  0.00000000E+00  0.00000000E+00
  0.00000000E+00  0.00000000E+00  0.00000000E+00  0.00000000E+00  0.00000000E+00
  0.00000000E+00  0.00000000E+00  0.00000000E+00  0.00000000E+00  0.00000000E+00
  0.00000000E+00  0.00000000E+00  0.00000000E+00  0.00000000E+00  0.00000000E+00
  2.19623722E-03  0.00000000E+00  0.00000000E+00 -3.66665985E-11  0.00000000E+00
  0.00000000E+00  0.00000000E+00  1.39327259E-10  0.00000000E+00 -3.24333445E-05
  0.00000000E+00  0.00000000E+00  1.80490580E-12  0.00000000E+00  0.00000000E+00
  0.00000000E+00  2.25866839E-10  0.00000000E+00  0.00000000E+00  0.00000000E+00
  0.00000000E+00  0.00000000E+00  0.00000000E+00  0.00000000E+00  0.00000000E+00
  0.00000000E+00  3.64948306E-01  0.00000000E+00  0.00000000E+00 -5.39765242E-01
  0.00000000E+00  0.00000000E+00  7.87723169E-02  0.00000000E+00  0.00000000E+00
  1.77933694E-02  0.00000000E+00  0.00000000E+00  6.07855188E-01  0.00000000E+00
  0.00000000E+00 -5.35303000E-03  0.00000000E+00  0.00000000E+00  1.73176188E-03
  0.00000000E+00  0.00000000E+00  0.00000000E+00  0.00000000E+00  0.00000000E+00
  0.00000000E+00  0.00000000E+00  0.00000000E+00  0.00000000E+00  0.00000000E+00
  0.00000000E+00  0.00000000E+00  0.00000000E+00  0.00000000E+00  0.00000000E+00
  0.00000000E+00  0.00000000E+00  0.00000000E+00  0.00000000E+00  0.00000000E+00
  0.00000000E+00  0.00000000E+00  0.00000000E+00  0.00000000E+00  0.00000000E+00
  0.00000000E+00  0.00000000E+00  0.00000000E+00  4.42923202E-03  0.00000000E+00
  0.00000000E+00  0.00000000E+00 -1.31010459E-10  0.00000000E+00  0.00000000E+00
  3.99211458E-03  0.00000000E+00  0.00000000E+00  0.00000000E+00 -4.97777001E-10
  0.00000000E+00  0.00000000E+00 -6.00558615E-04  0.00000000E+00  0.00000000E+00
  0.00000000E+00 -1.20845069E-10  0.00000000E+00  0.00000000E+00  0.00000000E+00
  0.00000000E+00  0.00000000E+00  0.00000000E+00  0.00000000E+00  0.00000000E+00
  0.00000000E+00  0.00000000E+00  0.00000000E+00  0.00000000E+00  0.00000000E+00
  0.00000000E+00  0.00000000E+00  0.00000000E+00  0.00000000E+00  0.00000000E+00
  0.00000000E+00  0.00000000E+00  0.00000000E+00  0.00000000E+00  0.00000000E+00
  0.00000000E+00  0.00000000E+00  0.00000000E+00  0.00000000E+00  0.00000000E+00
  3.64948306E-01  0.00000000E+00  0.00000000E+00 -5.39765242E-01  0.00000000E+00
  0.00000000E+00  7.87723169E-02  0.00000000E+00  0.00000000E+00  1.77933695E-02
  0.00000000E+00  0.00000000E+00  6.07855189E-01  0.00000000E+00  0.00000000E+00
 -5.35303001E-03  0.00000000E+00  0.00000000E+00  1.73176188E-03  0.00000000E+00
  0.00000000E+00  0.00000000E+00  0.00000000E+00  0.00000000E+00  0.00000000E+00
  0.00000000E+00  0.00000000E+00  0.00000000E+00  0.00000000E+00  0.00000000E+00
  0.00000000E+00  0.00000000E+00  0.00000000E+00  0.00000000E+00  0.00000000E+00
  0.00000000E+00  0.00000000E+00  0.00000000E+00  0.00000000E+00  0.00000000E+00
  0.00000000E+00  0.00000000E+00  0.00000000E+00  0.00000000E+00  0.00000000E+00
  0.00000000E+00  0.00000000E+00  4.42923194E-03  0.00000000E+00  0.00000000E+00
  0.00000000E+00  7.99579010E-11  0.00000000E+00  0.00000000E+00  3.99211452E-03
  0.00000000E+00  0.00000000E+00  0.00000000E+00  4.33840248E-10  0.00000000E+00
  0.00000000E+00 -6.00558604E-04  0.00000000E+00  0.00000000E+00  0.00000000E+00
  1.26844136E-10  0.00000000E+00  0.00000000E+00  0.00000000E+00  0.00000000E+00
  0.00000000E+00  0.00000000E+00  0.00000000E+00  0.00000000E+00  0.00000000E+00