************************************************************
This is node10.cluster of cluster Pinconning.
Date: Fri Sep 14 07:30:09 PDT 2018
************************************************************
 Set GAUSS_MDEF to "32GB".
 Set GAUSS_PDEF to "12".
 Entering Gaussian System, Link 0=gdv
 Initial command:
 /opt/gaussian/gdv-20170407-i10+/gdv/local/l1.exe "/tmp/645722.1.long.q/Gau-7609.inp" -scrdir="/tmp/645722.1.long.q/"
 Default is to use a total of  12 processors:
                               12 via shared-memory
                                1 via Linda
 Entering Link 1 = /opt/gaussian/gdv-20170407-i10+/gdv/local/l1.exe PID=      7610.
  
 Copyright (c) 1988-2017, Gaussian, Inc.  All Rights Reserved.
  
 This is the private, development version of
 the Gaussian(R) DV system of programs. It is based on
 the Gaussian(R) 16 system (copyright 2016, Gaussian, Inc.),
 the Gaussian(R) 09 system (copyright 2009, Gaussian, Inc.),
 the Gaussian(R) 03 system (copyright 2003, Gaussian, Inc.),
 the Gaussian(R) 98 system (copyright 1998, Gaussian, Inc.),
 the Gaussian(R) 94 system (copyright 1995, Gaussian, Inc.),
 the Gaussian 92(TM) system (copyright 1992, Gaussian, Inc.),
 the Gaussian 90(TM) system (copyright 1990, Gaussian, Inc.),
 the Gaussian 88(TM) system (copyright 1988, Gaussian, Inc.),
 the Gaussian 86(TM) system (copyright 1986, Carnegie Mellon
 University), and the Gaussian 82(TM) system (copyright 1983,
 Carnegie Mellon University). Gaussian is a federally registered
 trademark of Gaussian, Inc.
  
 This software contains proprietary and confidential information,
 including trade secrets, belonging to Gaussian, Inc.
  
 This software is provided under written license and may be
 used, copied, transmitted, or stored only in accord with that
 written license.
  
 The following legend is applicable only to US Government
 contracts under FAR:
  
                    RESTRICTED RIGHTS LEGEND
  
 Use, reproduction and disclosure by the US Government is
 subject to restrictions as set forth in subparagraphs (a)
 and (c) of the Commercial Computer Software - Restricted
 Rights clause in FAR 52.227-19.
  
 Gaussian, Inc.
 340 Quinnipiac St., Bldg. 40, Wallingford CT 06492
  
  
 ---------------------------------------------------------------
 Warning -- This program may not be used in any manner that
 competes with the business of Gaussian, Inc. or will provide
 assistance to any competitor of Gaussian, Inc.  The licensee
 of this program is prohibited from giving any competitor of
 Gaussian, Inc. access to this program.  By using this program,
 the user acknowledges that Gaussian, Inc. is engaged in the
 business of creating and licensing software in the field of
 computational chemistry and represents and warrants to the
 licensee that it is not a competitor of Gaussian, Inc. and that
 it will not use this program in any manner prohibited above.
 ---------------------------------------------------------------
  

 Cite this work as:
 Gaussian Development Version, Revision I.10+,
 M. J. Frisch, G. W. Trucks, H. B. Schlegel, G. E. Scuseria, 
 M. A. Robb, J. R. Cheeseman, G. Scalmani, V. Barone, 
 G. A. Petersson, H. Nakatsuji, X. Li, M. Caricato, A. V. Marenich, 
 J. Bloino, B. G. Janesko, R. Gomperts, B. Mennucci, H. P. Hratchian, 
 J. V. Ortiz, A. F. Izmaylov, J. L. Sonnenberg, D. Williams-Young, 
 F. Ding, F. Lipparini, F. Egidi, J. Goings, B. Peng, A. Petrone, 
 T. Henderson, D. Ranasinghe, V. G. Zakrzewski, J. Gao, N. Rega, 
 G. Zheng, W. Liang, M. Hada, M. Ehara, K. Toyota, R. Fukuda, 
 J. Hasegawa, M. Ishida, T. Nakajima, Y. Honda, O. Kitao, H. Nakai, 
 T. Vreven, K. Throssell, J. A. Montgomery, Jr., J. E. Peralta, 
 F. Ogliaro, M. J. Bearpark, J. J. Heyd, E. N. Brothers, K. N. Kudin, 
 V. N. Staroverov, T. A. Keith, R. Kobayashi, J. Normand, 
 K. Raghavachari, A. P. Rendell, J. C. Burant, S. S. Iyengar, 
 J. Tomasi, M. Cossi, J. M. Millam, M. Klene, C. Adamo, R. Cammi, 
 J. W. Ochterski, R. L. Martin, K. Morokuma, O. Farkas, 
 J. B. Foresman, and D. J. Fox, Gaussian, Inc., Wallingford CT, 2016.
 
 *******************************************
 Gaussian DV:  ES64L-GDVRevI.10+ 27-Mar-2017
                 14-Sep-2018 
 *******************************************
 %oldchk=H-N-TS
 %chk=H-N-IRC
 Copying data from "H-N-TS.chk" to current chk file "H-N-IRC.chk"
 IOpt=  2 FromEx=T IUOpen= 4 IOptOp= 5 NList=   0 IFRang= 0 IUIn= 4 IUOut= 2.
 ----------------------------------------------------------------------
 #p b3pw91 geom=allcheck guess=read chkbasis SCF=(novaracc,maxcycles=51
 2) Integral=(acc2e=12,grid=ultrafine) IRC=(calcfc,maxcycles=50,recorre
 ct=never)
 ----------------------------------------------------------------------
 1/6=50,10=4,18=10,26=4,29=7,38=1,44=3,131=1,172=1/1,23;
 2/12=2,29=1,40=1/2;
 3/5=7,6=2,11=2,14=-4,25=1,27=12,30=1,67=1,71=2,74=-6,75=-5,116=-2,140=1/1,2,3;
 4/5=1/1;
 5/5=2,7=512,38=6,87=12/2;
 8/6=4,10=90,11=11,87=12/1;
 11/6=1,8=1,9=11,15=111,16=1,87=12/1,2,10;
 10/6=1,13=1,87=12/2;
 6/7=2,8=2,9=2,10=2,28=1,87=12/1;
 7/10=1,18=20,25=1,87=12/1,2,3,16;
 1/6=50,10=4,18=10,26=4,44=3,131=1/23(2);
 2/29=1/2;
 99/5=20/99;
 2/29=1/2;
 3/5=7,6=1,11=2,14=-2,25=1,27=12,30=1,71=2,74=-6,75=-5,82=7,140=1/1,2,3;
 4/5=5,16=3,69=1/1;
 5/5=2,7=512,38=1,87=12/2;
 8/6=4,10=90,11=11,87=12/1;
 11/6=1,8=1,9=11,15=111,16=1,87=12/1,2,10;
 10/6=1,13=1,87=12/2;
 7/10=1,18=20,25=1,87=12/1,2,3,16;
 1/6=50,18=10,26=4,44=3,131=1/23(-8);
 2/29=1/2;
 6/7=2,8=2,9=2,10=2,19=2,28=1,87=12/1;
 99/5=20,9=1/99;
 Leave Link    1 at Fri Sep 14 07:30:09 2018, MaxMem=  4294967296 cpu:               2.8 elap:               0.3
 (Enter /opt/gaussian/gdv-20170407-i10+/gdv/l101.exe)
 Structure from the checkpoint file:  "H-N-IRC.chk"
 -----
 title
 -----
 Charge = -1 Multiplicity = 4
 Redundant internal coordinates found in file.  (old form).
 O,0,0.994337161,1.0958334108,-0.4142920263
 Ce,0,1.941040123,-0.6601841756,-0.1022009229
 Ce,0,-1.153025383,0.6021332789,0.0558113417
 O,0,0.0689650894,-1.2678512758,0.3487003518
 H,0,-2.7950758536,-0.134728725,1.4065155976
 H,0,-1.6648331367,2.7529084868,0.4749186581
 Recover connectivity data from disk.
 ITRead=  0  0  0  0  0  0
 MicOpt= -1 -1 -1 -1 -1 -1
 NAtoms=      6 NQM=        6 NQMF=       0 NMMI=      0 NMMIF=      0
                NMic=       0 NMicF=      0.
                    Isotopes and Nuclear Properties:
 (Nuclear quadrupole moments (NQMom) in fm**2, nuclear magnetic moments (NMagM)
  in nuclear magnetons)

  Atom         1           2           3           4           5           6
 IAtWgt=          16         140         140          16           1           1
 AtmWgt=  15.9949146 139.9053000 139.9053000  15.9949146   1.0078250   1.0078250
 NucSpn=           0           0           0           0           1           1
 AtZEff=   5.6000000 817.8000000 817.8000000   5.6000000   1.0000000   1.0000000
 NQMom=    0.0000000   0.0000000   0.0000000   0.0000000   0.0000000   0.0000000
 NMagM=    0.0000000   0.0000000   0.0000000   0.0000000   2.7928460   2.7928460
 AtZNuc=   8.0000000  58.0000000  58.0000000   8.0000000   1.0000000   1.0000000
 Leave Link  101 at Fri Sep 14 07:30:10 2018, MaxMem=  4294967296 cpu:               4.2 elap:               0.4
 (Enter /opt/gaussian/gdv-20170407-i10+/gdv/l123.exe)
 IRC-IRC-IRC-IRC-IRC-IRC-IRC-IRC-IRC-IRC-IRC-IRC-IRC-IRC-IRC-IRC-IRC-IRC
 ------------------------------------------------------------------------
 INPUT DATA FOR L123
 ------------------------------------------------------------------------
 GENERAL PARAMETERS:
 Follow reaction path in both directions.
 Maximum points per path      =  10
 Step size                    =   0.100 bohr
 Integration scheme           = HPC                                 
    Redo corrector integration= Never                               
    DWI Weight Power          =  2
    DWI will use Hessian update vectors when possible.
 Initial Hessian              = CalcFC
 Hessian evaluation           = All updating
 Hessian updating method      = Bofill                              
 ------------------------------------------------------------------------
 IRC-IRC-IRC-IRC-IRC-IRC-IRC-IRC-IRC-IRC-IRC-IRC-IRC-IRC-IRC-IRC-IRC-IRC
 Leave Link  123 at Fri Sep 14 07:30:10 2018, MaxMem=  4294967296 cpu:               0.0 elap:               0.0
 (Enter /opt/gaussian/gdv-20170407-i10+/gdv/l202.exe)
                          Input orientation:                          
 ---------------------------------------------------------------------
 Center     Atomic      Atomic             Coordinates (Angstroms)
 Number     Number       Type             X           Y           Z
 ---------------------------------------------------------------------
      1          8           0        0.994337    1.095833   -0.414292
      2         58           0        1.941040   -0.660184   -0.102201
      3         58           0       -1.153025    0.602133    0.055811
      4          8           0        0.068965   -1.267851    0.348700
      5          1           0       -2.795076   -0.134729    1.406516
      6          1           0       -1.664833    2.752908    0.474919
 ---------------------------------------------------------------------
                    Distance matrix (angstroms):
                    1          2          3          4          5
     1  O    0.000000
     2  Ce   2.019219   0.000000
     3  Ce   2.252976   3.345393   0.000000
     4  O    2.650561   2.019217   2.252973   0.000000
     5  H    4.380556   4.998312   2.250266   3.256635   0.000000
     6  H    3.256959   4.998459   2.250207   4.380468   3.237865
                    6
     6  H    0.000000
 Symmetry turned off by external request.
 Stoichiometry    Ce2H2O2(1-,4)
 Framework group  C1[X(Ce2H2O2)]
 Deg. of freedom    12
 Full point group                 C1      NOp   1
 Rotational constants (GHZ):           8.0320909           0.6294065           0.5856323
 Leave Link  202 at Fri Sep 14 07:30:10 2018, MaxMem=  4294967296 cpu:               0.1 elap:               0.0
 (Enter /opt/gaussian/gdv-20170407-i10+/gdv/l301.exe)
 Basis read from chk: "H-N-IRC.chk" (5D, 7F)
 Pseudo-potential data read from chk file.
   346 basis functions,  1662 primitive gaussians,   438 cartesian basis functions
    41 alpha electrons       38 beta electrons
       nuclear repulsion energy       418.8341905030 Hartrees.
 IExCor=  408 DFT=T Ex+Corr=B3PW91 ExCW=0 ScaHFX=  0.200000
 ScaDFX=  0.800000  0.720000  1.000000  0.810000 ScalE2=  1.000000  1.000000
 IRadAn=      5 IRanWt=     -1 IRanGd=            0 ICorTp=0 IEmpDi=  4
 NAtoms=    6 NActive=    6 NUniq=    6 SFac= 1.00D+00 NAtFMM=   60 NAOKFM=F Big=F
 Integral buffers will be    131072 words long.
 Raffenetti 2 integral format.
 Two-electron integral symmetry is turned off.
 No density basis found on file 20724.
 Leave Link  301 at Fri Sep 14 07:30:10 2018, MaxMem=  4294967296 cpu:               0.8 elap:               0.1
 (Enter /opt/gaussian/gdv-20170407-i10+/gdv/l302.exe)
 NPDir=0 NMtPBC=     1 NCelOv=     1 NCel=       1 NClECP=     1 NCelD=      1
         NCelK=      1 NCelE2=     1 NClLst=     1 CellRange=     0.0.
 One-electron integrals computed using PRISM.
   1 Symmetry operations used in ECPInt.
 ECPInt:  NShTT=    4465 NPrTT=   73342 LenC2=    4419 LenP2D=   52527.
 LDataN:  DoStor=T MaxTD1= 9 Len=  602
 NBasis=   346 RedAO= T EigKep=  5.75D-04  NBF=   346
 NBsUse=   346 1.00D-06 EigRej= -1.00D+00 NBFU=   346
 Precomputing XC quadrature grid using
 IXCGrd= 4 IRadAn=           5 IRanWt=          -1 IRanGd=           0 AccXCQ= 1.00D-12.
 Defaulting to unpruned grid for atomic number  58.
 Defaulting to unpruned grid for atomic number  58.
 Generated NRdTot=       0 NPtTot=           0 NUsed=           0 NTot=          32
 NSgBfM=   438   438   438   438   438 MxSgAt=     6 MxSgA2=     6.
 Leave Link  302 at Fri Sep 14 07:30:18 2018, MaxMem=  4294967296 cpu:              89.3 elap:               7.5
 (Enter /opt/gaussian/gdv-20170407-i10+/gdv/l303.exe)
 DipDrv:  MaxL=1.
 Leave Link  303 at Fri Sep 14 07:30:18 2018, MaxMem=  4294967296 cpu:               4.9 elap:               0.5
 (Enter /opt/gaussian/gdv-20170407-i10+/gdv/l401.exe)
 Initial guess from the checkpoint file:  "H-N-IRC.chk"
 B after Tr=     0.701615   -0.029966   -0.018811
         Rot=    0.970824    0.136980   -0.058196    0.188018 Ang=  27.75 deg.
 Guess basis will be translated and rotated to current coordinates.
 JPrj=2 DoOrth=T DoCkMO=T.
 Initial guess <Sx>= 0.0000 <Sy>= 0.0000 <Sz>= 1.5000 <S**2>= 3.7564 S= 1.5016
 Leave Link  401 at Fri Sep 14 07:30:19 2018, MaxMem=  4294967296 cpu:               5.4 elap:               0.5
 (Enter /opt/gaussian/gdv-20170407-i10+/gdv/l502.exe)
 Keep R1 and R2 ints in memory in canonical form, NReq=3646083755.
 FoFCou: FMM=F IPFlag=           0 FMFlag=           0 FMFlg1=           0
         NFxFlg=           0 DoJE=F BraDBF=F KetDBF=F FulRan=T
         wScrn=  0.000000 ICntrl=       600 IOpCl=  0 I1Cent=           0 NGrid=           0
         NMat0=    1 NMatS0=  60031 NMatT0=    0 NMatD0=    1 NMtDS0=    0 NMtDT0=    0
 Symmetry not used in FoFCou.
 Two-electron integral symmetry not used.
 UHF open shell SCF:
 Using DIIS extrapolation, IDIIS=  1040.
 NGot=  4294967296 LenX=   690794800 LenY=   690602515
 Requested convergence on RMS density matrix=1.00D-08 within 512 cycles.
 Requested convergence on MAX density matrix=1.00D-06.
 Requested convergence on             energy=1.00D-06.
 No special actions if energy rises.

 Cycle   1  Pass 1  IDiag  1:
 Defaulting to unpruned grid for atomic number  58.
 Defaulting to unpruned grid for atomic number  58.
 Defaulting to unpruned grid for atomic number  58.
 Defaulting to unpruned grid for atomic number  58.
 Defaulting to unpruned grid for atomic number  58.
 Defaulting to unpruned grid for atomic number  58.
 Defaulting to unpruned grid for atomic number  58.
 Defaulting to unpruned grid for atomic number  58.
 Defaulting to unpruned grid for atomic number  58.
 Defaulting to unpruned grid for atomic number  58.
 Defaulting to unpruned grid for atomic number  58.
 Defaulting to unpruned grid for atomic number  58.
 E= -1102.19291271854    
 DIIS: error= 1.78D-05 at cycle   1 NSaved=   1.
 NSaved= 1 IEnMin= 1 EnMin= -1102.19291271854     IErMin= 1 ErrMin= 1.78D-05
 ErrMax= 1.78D-05  0.00D+00 EMaxC= 1.00D-01 BMatC= 5.90D-07 BMatP= 5.90D-07
 IDIUse=1 WtCom= 1.00D+00 WtEn= 0.00D+00
 Coeff-Com:  0.100D+01
 Coeff:      0.100D+01
 Gap=     0.081 Goal=   None    Shift=    0.000
 Gap=     0.105 Goal=   None    Shift=    0.000
 RMSDP=2.84D-06 MaxDP=2.18D-04              OVMax= 7.62D-05

 Cycle   2  Pass 1  IDiag  1:
 E= -1102.19291275533     Delta-E=       -0.000000036792 Rises=F Damp=F
 DIIS: error= 1.41D-06 at cycle   2 NSaved=   2.
 NSaved= 2 IEnMin= 2 EnMin= -1102.19291275533     IErMin= 2 ErrMin= 1.41D-06
 ErrMax= 1.41D-06  0.00D+00 EMaxC= 1.00D-01 BMatC= 2.95D-09 BMatP= 5.90D-07
 IDIUse=1 WtCom= 1.00D+00 WtEn= 0.00D+00
 Coeff-Com: -0.191D-01 0.102D+01
 Coeff:     -0.191D-01 0.102D+01
 Gap=     0.081 Goal=   None    Shift=    0.000
 Gap=     0.105 Goal=   None    Shift=    0.000
 RMSDP=1.58D-07 MaxDP=1.23D-05 DE=-3.68D-08 OVMax= 7.17D-05

 Cycle   3  Pass 1  IDiag  1:
 E= -1102.19291275838     Delta-E=       -0.000000003049 Rises=F Damp=F
 DIIS: error= 1.43D-06 at cycle   3 NSaved=   3.
 NSaved= 3 IEnMin= 3 EnMin= -1102.19291275838     IErMin= 2 ErrMin= 1.41D-06
 ErrMax= 1.43D-06  0.00D+00 EMaxC= 1.00D-01 BMatC= 1.31D-09 BMatP= 2.95D-09
 IDIUse=1 WtCom= 1.00D+00 WtEn= 0.00D+00
 Coeff-Com: -0.630D-02 0.220D+00 0.787D+00
 Coeff:     -0.630D-02 0.220D+00 0.787D+00
 Gap=     0.081 Goal=   None    Shift=    0.000
 Gap=     0.105 Goal=   None    Shift=    0.000
 RMSDP=1.29D-07 MaxDP=1.77D-05 DE=-3.05D-09 OVMax= 5.39D-05

 Cycle   4  Pass 1  IDiag  1:
 E= -1102.19291276046     Delta-E=       -0.000000002081 Rises=F Damp=F
 DIIS: error= 1.55D-06 at cycle   4 NSaved=   4.
 NSaved= 4 IEnMin= 4 EnMin= -1102.19291276046     IErMin= 2 ErrMin= 1.41D-06
 ErrMax= 1.55D-06  0.00D+00 EMaxC= 1.00D-01 BMatC= 1.38D-09 BMatP= 1.31D-09
 IDIUse=1 WtCom= 1.00D+00 WtEn= 0.00D+00
 Coeff-Com:  0.119D-02-0.123D+00 0.533D+00 0.589D+00
 Coeff:      0.119D-02-0.123D+00 0.533D+00 0.589D+00
 Gap=     0.081 Goal=   None    Shift=    0.000
 Gap=     0.105 Goal=   None    Shift=    0.000
 RMSDP=1.05D-07 MaxDP=9.20D-06 DE=-2.08D-09 OVMax= 5.32D-05

 Cycle   5  Pass 1  IDiag  1:
 E= -1102.19291276252     Delta-E=       -0.000000002058 Rises=F Damp=F
 DIIS: error= 1.49D-06 at cycle   5 NSaved=   5.
 NSaved= 5 IEnMin= 5 EnMin= -1102.19291276252     IErMin= 2 ErrMin= 1.41D-06
 ErrMax= 1.49D-06  0.00D+00 EMaxC= 1.00D-01 BMatC= 1.04D-09 BMatP= 1.31D-09
 IDIUse=1 WtCom= 1.00D+00 WtEn= 0.00D+00
 Coeff-Com:  0.602D-02-0.304D+00 0.115D+00 0.472D+00 0.711D+00
 Coeff:      0.602D-02-0.304D+00 0.115D+00 0.472D+00 0.711D+00
 Gap=     0.081 Goal=   None    Shift=    0.000
 Gap=     0.105 Goal=   None    Shift=    0.000
 RMSDP=1.44D-07 MaxDP=1.39D-05 DE=-2.06D-09 OVMax= 7.94D-05

 Cycle   6  Pass 1  IDiag  1:
 E= -1102.19291276545     Delta-E=       -0.000000002924 Rises=F Damp=F
 DIIS: error= 1.46D-06 at cycle   6 NSaved=   6.
 NSaved= 6 IEnMin= 6 EnMin= -1102.19291276545     IErMin= 2 ErrMin= 1.41D-06
 ErrMax= 1.46D-06  0.00D+00 EMaxC= 1.00D-01 BMatC= 9.06D-10 BMatP= 1.04D-09
 IDIUse=1 WtCom= 1.00D+00 WtEn= 0.00D+00
 Coeff-Com:  0.105D-01-0.428D+00-0.584D+00-0.138D+00 0.952D+00 0.119D+01
 Coeff:      0.105D-01-0.428D+00-0.584D+00-0.138D+00 0.952D+00 0.119D+01
 Gap=     0.081 Goal=   None    Shift=    0.000
 Gap=     0.105 Goal=   None    Shift=    0.000
 RMSDP=3.87D-07 MaxDP=3.80D-05 DE=-2.92D-09 OVMax= 2.16D-04

 Cycle   7  Pass 1  IDiag  1:
 E= -1102.19291277284     Delta-E=       -0.000000007393 Rises=F Damp=F
 DIIS: error= 1.47D-06 at cycle   7 NSaved=   7.
 NSaved= 7 IEnMin= 7 EnMin= -1102.19291277284     IErMin= 2 ErrMin= 1.41D-06
 ErrMax= 1.47D-06  0.00D+00 EMaxC= 1.00D-01 BMatC= 6.59D-10 BMatP= 9.06D-10
 IDIUse=1 WtCom= 1.00D+00 WtEn= 0.00D+00
 Coeff-Com:  0.307D-02-0.115D+00-0.290D+00-0.310D+00-0.791D-01 0.611D+00
 Coeff-Com:  0.118D+01
 Coeff:      0.307D-02-0.115D+00-0.290D+00-0.310D+00-0.791D-01 0.611D+00
 Coeff:      0.118D+01
 Gap=     0.081 Goal=   None    Shift=    0.000
 Gap=     0.105 Goal=   None    Shift=    0.000
 RMSDP=3.96D-07 MaxDP=3.93D-05 DE=-7.39D-09 OVMax= 2.21D-04

 Cycle   8  Pass 1  IDiag  1:
 E= -1102.19291277979     Delta-E=       -0.000000006948 Rises=F Damp=F
 DIIS: error= 1.45D-06 at cycle   8 NSaved=   8.
 NSaved= 8 IEnMin= 8 EnMin= -1102.19291277979     IErMin= 2 ErrMin= 1.41D-06
 ErrMax= 1.45D-06  0.00D+00 EMaxC= 1.00D-01 BMatC= 5.98D-10 BMatP= 6.59D-10
 IDIUse=1 WtCom= 1.00D+00 WtEn= 0.00D+00
 Coeff-Com: -0.132D-02 0.464D-01 0.360D-01-0.101D+00-0.358D+00-0.255D-01
 Coeff-Com:  0.764D+00 0.639D+00
 Coeff:     -0.132D-02 0.464D-01 0.360D-01-0.101D+00-0.358D+00-0.255D-01
 Coeff:      0.764D+00 0.639D+00
 Gap=     0.081 Goal=   None    Shift=    0.000
 Gap=     0.105 Goal=   None    Shift=    0.000
 RMSDP=1.48D-07 MaxDP=1.51D-05 DE=-6.95D-09 OVMax= 8.33D-05

 Cycle   9  Pass 1  IDiag  1:
 E= -1102.19291278235     Delta-E=       -0.000000002565 Rises=F Damp=F
 DIIS: error= 1.43D-06 at cycle   9 NSaved=   9.
 NSaved= 9 IEnMin= 9 EnMin= -1102.19291278235     IErMin= 2 ErrMin= 1.41D-06
 ErrMax= 1.43D-06  0.00D+00 EMaxC= 1.00D-01 BMatC= 5.48D-10 BMatP= 5.98D-10
 IDIUse=1 WtCom= 1.00D+00 WtEn= 0.00D+00
 Coeff-Com: -0.179D-02 0.312D-01 0.242D+00 0.209D+00-0.103D+00-0.413D+00
 Coeff-Com: -0.309D+00 0.744D-01 0.127D+01
 Coeff:     -0.179D-02 0.312D-01 0.242D+00 0.209D+00-0.103D+00-0.413D+00
 Coeff:     -0.309D+00 0.744D-01 0.127D+01
 Gap=     0.081 Goal=   None    Shift=    0.000
 Gap=     0.105 Goal=   None    Shift=    0.000
 RMSDP=1.61D-07 MaxDP=1.60D-05 DE=-2.57D-09 OVMax= 9.14D-05

 Cycle  10  Pass 1  IDiag  1:
 E= -1102.19291278515     Delta-E=       -0.000000002800 Rises=F Damp=F
 DIIS: error= 1.44D-06 at cycle  10 NSaved=  10.
 NSaved=10 IEnMin=10 EnMin= -1102.19291278515     IErMin= 2 ErrMin= 1.41D-06
 ErrMax= 1.44D-06  0.00D+00 EMaxC= 1.00D-01 BMatC= 5.39D-10 BMatP= 5.48D-10
 IDIUse=1 WtCom= 1.00D+00 WtEn= 0.00D+00
 Coeff-Com:  0.374D-03-0.694D-01 0.142D+00 0.278D+00 0.349D+00-0.259D+00
 Coeff-Com: -0.108D+01-0.712D+00 0.810D+00 0.154D+01
 Coeff:      0.374D-03-0.694D-01 0.142D+00 0.278D+00 0.349D+00-0.259D+00
 Coeff:     -0.108D+01-0.712D+00 0.810D+00 0.154D+01
 Gap=     0.081 Goal=   None    Shift=    0.000
 Gap=     0.105 Goal=   None    Shift=    0.000
 RMSDP=3.39D-07 MaxDP=3.37D-05 DE=-2.80D-09 OVMax= 1.93D-04

 Cycle  11  Pass 1  IDiag  1:
 E= -1102.19291279100     Delta-E=       -0.000000005846 Rises=F Damp=F
 DIIS: error= 1.40D-06 at cycle  11 NSaved=  11.
 NSaved=11 IEnMin=11 EnMin= -1102.19291279100     IErMin=11 ErrMin= 1.40D-06
 ErrMax= 1.40D-06  0.00D+00 EMaxC= 1.00D-01 BMatC= 5.18D-10 BMatP= 5.39D-10
 IDIUse=1 WtCom= 1.00D+00 WtEn= 0.00D+00
 Coeff-Com:  0.282D-02-0.150D+00-0.216D+00-0.156D-01 0.512D+00 0.418D+00
 Coeff-Com: -0.598D+00-0.915D+00-0.139D+01 0.149D+01 0.186D+01
 Coeff:      0.282D-02-0.150D+00-0.216D+00-0.156D-01 0.512D+00 0.418D+00
 Coeff:     -0.598D+00-0.915D+00-0.139D+01 0.149D+01 0.186D+01
 Gap=     0.081 Goal=   None    Shift=    0.000
 Gap=     0.105 Goal=   None    Shift=    0.000
 RMSDP=7.83D-07 MaxDP=7.73D-05 DE=-5.85D-09 OVMax= 4.46D-04

 Cycle  12  Pass 1  IDiag  1:
 E= -1102.19291280412     Delta-E=       -0.000000013126 Rises=F Damp=F
 DIIS: error= 1.37D-06 at cycle  12 NSaved=  12.
 NSaved=12 IEnMin=12 EnMin= -1102.19291280412     IErMin=12 ErrMin= 1.37D-06
 ErrMax= 1.37D-06  0.00D+00 EMaxC= 1.00D-01 BMatC= 5.18D-10 BMatP= 5.18D-10
 IDIUse=1 WtCom= 1.00D+00 WtEn= 0.00D+00
 Coeff-Com:  0.284D-02-0.128D+00-0.392D+00-0.221D+00 0.363D+00 0.713D+00
 Coeff-Com:  0.170D+00-0.544D+00-0.210D+01 0.297D+00 0.211D+01 0.727D+00
 Coeff:      0.284D-02-0.128D+00-0.392D+00-0.221D+00 0.363D+00 0.713D+00
 Coeff:      0.170D+00-0.544D+00-0.210D+01 0.297D+00 0.211D+01 0.727D+00
 Gap=     0.081 Goal=   None    Shift=    0.000
 Gap=     0.105 Goal=   None    Shift=    0.000
 RMSDP=7.07D-07 MaxDP=6.91D-05 DE=-1.31D-08 OVMax= 4.03D-04

 Cycle  13  Pass 1  IDiag  1:
 E= -1102.19291281556     Delta-E=       -0.000000011436 Rises=F Damp=F
 DIIS: error= 1.34D-06 at cycle  13 NSaved=  13.
 NSaved=13 IEnMin=13 EnMin= -1102.19291281556     IErMin=13 ErrMin= 1.34D-06
 ErrMax= 1.34D-06  0.00D+00 EMaxC= 1.00D-01 BMatC= 4.78D-10 BMatP= 5.18D-10
 IDIUse=1 WtCom= 1.00D+00 WtEn= 0.00D+00
 Coeff-Com: -0.501D-03 0.239D-01-0.233D+00-0.254D+00-0.148D+00 0.415D+00
 Coeff-Com:  0.979D+00 0.261D+00-0.932D+00-0.138D+01 0.539D+00 0.785D+00
 Coeff-Com:  0.943D+00
 Coeff:     -0.501D-03 0.239D-01-0.233D+00-0.254D+00-0.148D+00 0.415D+00
 Coeff:      0.979D+00 0.261D+00-0.932D+00-0.138D+01 0.539D+00 0.785D+00
 Coeff:      0.943D+00
 Gap=     0.081 Goal=   None    Shift=    0.000
 Gap=     0.105 Goal=   None    Shift=    0.000
 RMSDP=7.91D-07 MaxDP=7.61D-05 DE=-1.14D-08 OVMax= 4.51D-04

 Cycle  14  Pass 1  IDiag  1:
 E= -1102.19291282794     Delta-E=       -0.000000012380 Rises=F Damp=F
 DIIS: error= 1.30D-06 at cycle  14 NSaved=  14.
 NSaved=14 IEnMin=14 EnMin= -1102.19291282794     IErMin=14 ErrMin= 1.30D-06
 ErrMax= 1.30D-06  0.00D+00 EMaxC= 1.00D-01 BMatC= 4.35D-10 BMatP= 4.78D-10
 IDIUse=1 WtCom= 1.00D+00 WtEn= 0.00D+00
 Coeff-Com: -0.127D-02 0.311D-01 0.290D-01-0.159D-01 0.146D-01-0.679D-01
 Coeff-Com: -0.147D+00-0.536D-01 0.863D+00 0.113D+00-0.840D+00-0.445D+00
 Coeff-Com: -0.148D+00 0.167D+01
 Coeff:     -0.127D-02 0.311D-01 0.290D-01-0.159D-01 0.146D-01-0.679D-01
 Coeff:     -0.147D+00-0.536D-01 0.863D+00 0.113D+00-0.840D+00-0.445D+00
 Coeff:     -0.148D+00 0.167D+01
 Gap=     0.081 Goal=   None    Shift=    0.000
 Gap=     0.105 Goal=   None    Shift=    0.000
 RMSDP=7.43D-07 MaxDP=7.05D-05 DE=-1.24D-08 OVMax= 4.24D-04

 Cycle  15  Pass 1  IDiag  1:
 E= -1102.19291283926     Delta-E=       -0.000000011320 Rises=F Damp=F
 DIIS: error= 1.28D-06 at cycle  15 NSaved=  15.
 NSaved=15 IEnMin=15 EnMin= -1102.19291283926     IErMin=15 ErrMin= 1.28D-06
 ErrMax= 1.28D-06  0.00D+00 EMaxC= 1.00D-01 BMatC= 4.24D-10 BMatP= 4.35D-10
 IDIUse=1 WtCom= 1.00D+00 WtEn= 0.00D+00
 Coeff-Com:  0.611D-04-0.452D-01 0.275D-01 0.153D+00 0.385D+00-0.820D-01
 Coeff-Com: -0.118D+01-0.778D+00 0.317D+00 0.233D+01 0.372D-01-0.109D+01
 Coeff-Com: -0.156D+01 0.464D+00 0.202D+01
 Coeff:      0.611D-04-0.452D-01 0.275D-01 0.153D+00 0.385D+00-0.820D-01
 Coeff:     -0.118D+01-0.778D+00 0.317D+00 0.233D+01 0.372D-01-0.109D+01
 Coeff:     -0.156D+01 0.464D+00 0.202D+01
 Gap=     0.081 Goal=   None    Shift=    0.000
 Gap=     0.105 Goal=   None    Shift=    0.000
 RMSDP=1.11D-06 MaxDP=1.03D-04 DE=-1.13D-08 OVMax= 6.36D-04

 Cycle  16  Pass 1  IDiag  1:
 E= -1102.19291285569     Delta-E=       -0.000000016431 Rises=F Damp=F
 DIIS: error= 1.25D-06 at cycle  16 NSaved=  16.
 NSaved=16 IEnMin=16 EnMin= -1102.19291285569     IErMin=16 ErrMin= 1.25D-06
 ErrMax= 1.25D-06  0.00D+00 EMaxC= 1.00D-01 BMatC= 4.06D-10 BMatP= 4.24D-10
 IDIUse=1 WtCom= 1.00D+00 WtEn= 0.00D+00
 Coeff-Com:  0.338D-02-0.167D+00-0.344D+00 0.426D-02 0.574D+00 0.573D+00
 Coeff-Com: -0.564D+00-0.991D+00-0.233D+01 0.245D+01 0.231D+01-0.198D+00
 Coeff-Com: -0.146D+01-0.248D+01 0.161D+01 0.200D+01
 Coeff:      0.338D-02-0.167D+00-0.344D+00 0.426D-02 0.574D+00 0.573D+00
 Coeff:     -0.564D+00-0.991D+00-0.233D+01 0.245D+01 0.231D+01-0.198D+00
 Coeff:     -0.146D+01-0.248D+01 0.161D+01 0.200D+01
 Gap=     0.081 Goal=   None    Shift=    0.000
 Gap=     0.105 Goal=   None    Shift=    0.000
 RMSDP=1.87D-06 MaxDP=1.68D-04 DE=-1.64D-08 OVMax= 1.07D-03

 Cycle  17  Pass 1  IDiag  1:
 E= -1102.19291288204     Delta-E=       -0.000000026351 Rises=F Damp=F
 DIIS: error= 1.22D-06 at cycle  17 NSaved=  17.
 NSaved=17 IEnMin=17 EnMin= -1102.19291288204     IErMin=17 ErrMin= 1.22D-06
 ErrMax= 1.22D-06  0.00D+00 EMaxC= 1.00D-01 BMatC= 3.65D-10 BMatP= 4.06D-10
 IDIUse=1 WtCom= 1.00D+00 WtEn= 0.00D+00
 Coeff-Com:  0.110D-02-0.469D-01-0.189D+00-0.187D+00 0.289D-01 0.427D+00
 Coeff-Com:  0.705D+00 0.144D+00-0.119D+01-0.101D+01 0.106D+01 0.843D+00
 Coeff-Com:  0.869D+00-0.148D+01-0.152D+01 0.725D+00 0.183D+01
 Coeff:      0.110D-02-0.469D-01-0.189D+00-0.187D+00 0.289D-01 0.427D+00
 Coeff:      0.705D+00 0.144D+00-0.119D+01-0.101D+01 0.106D+01 0.843D+00
 Coeff:      0.869D+00-0.148D+01-0.152D+01 0.725D+00 0.183D+01
 Gap=     0.081 Goal=   None    Shift=    0.000
 Gap=     0.105 Goal=   None    Shift=    0.000
 RMSDP=2.22D-06 MaxDP=1.92D-04 DE=-2.64D-08 OVMax= 1.27D-03

 Cycle  18  Pass 1  IDiag  1:
 E= -1102.19291291121     Delta-E=       -0.000000029168 Rises=F Damp=F
 DIIS: error= 1.21D-06 at cycle  18 NSaved=  18.
 NSaved=18 IEnMin=18 EnMin= -1102.19291291121     IErMin=18 ErrMin= 1.21D-06
 ErrMax= 1.21D-06  0.00D+00 EMaxC= 1.00D-01 BMatC= 3.39D-10 BMatP= 3.65D-10
 IDIUse=1 WtCom= 1.00D+00 WtEn= 0.00D+00
 Coeff-Com: -0.817D-03 0.275D-01 0.652D-01-0.108D+00-0.267D+00-0.744D-02
 Coeff-Com:  0.727D+00 0.520D+00 0.402D+00-0.188D+01-0.394D+00 0.636D+00
 Coeff-Com:  0.121D+01 0.328D+00-0.182D+01-0.443D+00 0.119D+01 0.810D+00
 Coeff:     -0.817D-03 0.275D-01 0.652D-01-0.108D+00-0.267D+00-0.744D-02
 Coeff:      0.727D+00 0.520D+00 0.402D+00-0.188D+01-0.394D+00 0.636D+00
 Coeff:      0.121D+01 0.328D+00-0.182D+01-0.443D+00 0.119D+01 0.810D+00
 Gap=     0.081 Goal=   None    Shift=    0.000
 Gap=     0.105 Goal=   None    Shift=    0.000
 RMSDP=1.19D-06 MaxDP=1.01D-04 DE=-2.92D-08 OVMax= 6.79D-04

 Cycle  19  Pass 1  IDiag  1:
 E= -1102.19291292584     Delta-E=       -0.000000014625 Rises=F Damp=F
 DIIS: error= 1.17D-06 at cycle  19 NSaved=  19.
 NSaved=19 IEnMin=19 EnMin= -1102.19291292584     IErMin=19 ErrMin= 1.17D-06
 ErrMax= 1.17D-06  0.00D+00 EMaxC= 1.00D-01 BMatC= 3.25D-10 BMatP= 3.39D-10
 IDIUse=1 WtCom= 1.00D+00 WtEn= 0.00D+00
 Coeff-Com: -0.668D-03 0.802D-02 0.107D+00 0.650D-01-0.128D+00-0.194D+00
 Coeff-Com:  0.941D-01 0.132D+00 0.885D+00-0.840D+00-0.655D+00 0.154D+00
 Coeff-Com:  0.431D+00 0.636D+00-0.600D+00-0.269D+00 0.171D-01 0.290D+00
 Coeff-Com:  0.867D+00
 Coeff:     -0.668D-03 0.802D-02 0.107D+00 0.650D-01-0.128D+00-0.194D+00
 Coeff:      0.941D-01 0.132D+00 0.885D+00-0.840D+00-0.655D+00 0.154D+00
 Coeff:      0.431D+00 0.636D+00-0.600D+00-0.269D+00 0.171D-01 0.290D+00
 Coeff:      0.867D+00
 Gap=     0.081 Goal=   None    Shift=    0.000
 Gap=     0.105 Goal=   None    Shift=    0.000
 RMSDP=4.11D-07 MaxDP=3.36D-05 DE=-1.46D-08 OVMax= 2.36D-04

 Cycle  20  Pass 1  IDiag  1:
 E= -1102.19291293085     Delta-E=       -0.000000005011 Rises=F Damp=F
 DIIS: error= 1.17D-06 at cycle  20 NSaved=  20.
 NSaved=20 IEnMin=20 EnMin= -1102.19291293085     IErMin=20 ErrMin= 1.17D-06
 ErrMax= 1.17D-06  0.00D+00 EMaxC= 1.00D-01 BMatC= 3.18D-10 BMatP= 3.25D-10
 IDIUse=1 WtCom= 1.00D+00 WtEn= 0.00D+00
 Coeff-Com: -0.571D-04-0.174D-01 0.698D-01 0.896D-01 0.386D-01-0.847D-01
 Coeff-Com: -0.220D+00-0.942D-01 0.117D+00 0.239D+00-0.310D-01-0.406D-01
 Coeff-Com: -0.129D+00-0.294D+00 0.309D+00 0.358D+00-0.205D+00-0.555D+00
 Coeff-Com: -0.938D+00 0.239D+01
 Coeff:     -0.571D-04-0.174D-01 0.698D-01 0.896D-01 0.386D-01-0.847D-01
 Coeff:     -0.220D+00-0.942D-01 0.117D+00 0.239D+00-0.310D-01-0.406D-01
 Coeff:     -0.129D+00-0.294D+00 0.309D+00 0.358D+00-0.205D+00-0.555D+00
 Coeff:     -0.938D+00 0.239D+01
 Gap=     0.081 Goal=   None    Shift=    0.000
 Gap=     0.105 Goal=   None    Shift=    0.000
 RMSDP=5.79D-07 MaxDP=4.13D-05 DE=-5.01D-09 OVMax= 3.32D-04

 Cycle  21  Pass 1  IDiag  1:
 E= -1102.19291293809     Delta-E=       -0.000000007244 Rises=F Damp=F
 DIIS: error= 1.15D-06 at cycle  21 NSaved=  20.
 NSaved=20 IEnMin=20 EnMin= -1102.19291293809     IErMin=20 ErrMin= 1.15D-06
 ErrMax= 1.15D-06  0.00D+00 EMaxC= 1.00D-01 BMatC= 3.12D-10 BMatP= 3.18D-10
 IDIUse=1 WtCom= 1.00D+00 WtEn= 0.00D+00
 Coeff-Com:  0.125D-01 0.771D-01-0.198D-01-0.166D+00-0.786D-01 0.448D+00
 Coeff-Com:  0.250D+00 0.453D+00-0.118D+01-0.967D-01 0.239D+00 0.739D+00
 Coeff-Com:  0.333D-01-0.104D+01-0.324D+00 0.794D+00 0.373D+00-0.597D+00
 Coeff-Com: -0.221D+01 0.328D+01
 Coeff:      0.125D-01 0.771D-01-0.198D-01-0.166D+00-0.786D-01 0.448D+00
 Coeff:      0.250D+00 0.453D+00-0.118D+01-0.967D-01 0.239D+00 0.739D+00
 Coeff:      0.333D-01-0.104D+01-0.324D+00 0.794D+00 0.373D+00-0.597D+00
 Coeff:     -0.221D+01 0.328D+01
 Gap=     0.081 Goal=   None    Shift=    0.000
 Gap=     0.105 Goal=   None    Shift=    0.000
 RMSDP=1.07D-06 MaxDP=8.10D-05 DE=-7.24D-09 OVMax= 6.13D-04

 Cycle  22  Pass 1  IDiag  1:
 E= -1102.19291295165     Delta-E=       -0.000000013558 Rises=F Damp=F
 DIIS: error= 1.13D-06 at cycle  22 NSaved=  20.
 NSaved=20 IEnMin=20 EnMin= -1102.19291295165     IErMin=20 ErrMin= 1.13D-06
 ErrMax= 1.13D-06  0.00D+00 EMaxC= 1.00D-01 BMatC= 3.03D-10 BMatP= 3.12D-10
 IDIUse=1 WtCom= 1.00D+00 WtEn= 0.00D+00
 Large coefficients: NSaved= 20 BigCof=   12.12 CofMax=   10.00 Det=-1.63D-13
 Inversion failed.  Reducing to 19 matrices.
 Large coefficients: NSaved= 19 BigCof=   12.15 CofMax=   10.00 Det=-1.63D-13
 Inversion failed.  Reducing to 18 matrices.
 Large coefficients: NSaved= 18 BigCof=   11.25 CofMax=   10.00 Det=-1.74D-13
 Inversion failed.  Reducing to 17 matrices.
 Coeff-Com: -0.107D+00 0.234D+00-0.798D-01 0.110D+01-0.116D+01-0.326D+00
 Coeff-Com:  0.200D+00 0.822D+00 0.104D+01-0.204D+01-0.897D+00 0.107D+01
 Coeff-Com:  0.172D+01 0.153D+01-0.934D+01 0.468D+01 0.256D+01
 Coeff:     -0.107D+00 0.234D+00-0.798D-01 0.110D+01-0.116D+01-0.326D+00
 Coeff:      0.200D+00 0.822D+00 0.104D+01-0.204D+01-0.897D+00 0.107D+01
 Coeff:      0.172D+01 0.153D+01-0.934D+01 0.468D+01 0.256D+01
 Gap=     0.081 Goal=   None    Shift=    0.000
 Gap=     0.105 Goal=   None    Shift=    0.000
 RMSDP=3.48D-06 MaxDP=2.66D-04 DE=-1.36D-08 OVMax= 2.00D-03

 Cycle  23  Pass 1  IDiag  1:
 E= -1102.19291299362     Delta-E=       -0.000000041975 Rises=F Damp=F
 DIIS: error= 1.07D-06 at cycle  23 NSaved=  18.
 NSaved=18 IEnMin=18 EnMin= -1102.19291299362     IErMin=18 ErrMin= 1.07D-06
 ErrMax= 1.07D-06  0.00D+00 EMaxC= 1.00D-01 BMatC= 2.75D-10 BMatP= 3.03D-10
 IDIUse=1 WtCom= 1.00D+00 WtEn= 0.00D+00
 Coeff-Com: -0.235D+00 0.502D+00 0.130D+00 0.168D+01-0.150D+01-0.109D+01
 Coeff-Com:  0.349D+00 0.612D+00 0.170D+01-0.236D+01-0.688D+00 0.246D+00
 Coeff-Com:  0.174D+01 0.281D+01-0.963D+01 0.221D+01 0.291D+01 0.161D+01
 Coeff:     -0.235D+00 0.502D+00 0.130D+00 0.168D+01-0.150D+01-0.109D+01
 Coeff:      0.349D+00 0.612D+00 0.170D+01-0.236D+01-0.688D+00 0.246D+00
 Coeff:      0.174D+01 0.281D+01-0.963D+01 0.221D+01 0.291D+01 0.161D+01
 Gap=     0.081 Goal=   None    Shift=    0.000
 Gap=     0.105 Goal=   None    Shift=    0.000
 RMSDP=7.71D-06 MaxDP=5.92D-04 DE=-4.20D-08 OVMax= 4.44D-03

 Cycle  24  Pass 1  IDiag  1:
 E= -1102.19291307256     Delta-E=       -0.000000078937 Rises=F Damp=F
 DIIS: error= 9.60D-07 at cycle  24 NSaved=  19.
 NSaved=19 IEnMin=19 EnMin= -1102.19291307256     IErMin=19 ErrMin= 9.60D-07
 ErrMax= 9.60D-07  0.00D+00 EMaxC= 1.00D-01 BMatC= 3.53D-10 BMatP= 2.75D-10
 IDIUse=1 WtCom= 1.00D+00 WtEn= 0.00D+00
 Coeff-Com: -0.102D+00 0.489D+00-0.991D-03 0.111D+01-0.121D+01-0.358D+00
 Coeff-Com:  0.268D+00 0.506D+00 0.667D+00-0.195D+01-0.227D+00 0.577D+00
 Coeff-Com:  0.120D+01 0.911D+00-0.814D+01 0.380D+01 0.224D+01 0.920D+00
 Coeff-Com:  0.302D+00
 Coeff:     -0.102D+00 0.489D+00-0.991D-03 0.111D+01-0.121D+01-0.358D+00
 Coeff:      0.268D+00 0.506D+00 0.667D+00-0.195D+01-0.227D+00 0.577D+00
 Coeff:      0.120D+01 0.911D+00-0.814D+01 0.380D+01 0.224D+01 0.920D+00
 Coeff:      0.302D+00
 Gap=     0.081 Goal=   None    Shift=    0.000
 Gap=     0.105 Goal=   None    Shift=    0.000
 RMSDP=3.06D-07 MaxDP=2.35D-05 DE=-7.89D-08 OVMax= 1.76D-04

 Cycle  25  Pass 1  IDiag  1:
 E= -1102.19291307531     Delta-E=       -0.000000002750 Rises=F Damp=F
 DIIS: error= 9.50D-07 at cycle  25 NSaved=  20.
 NSaved=20 IEnMin=20 EnMin= -1102.19291307531     IErMin=20 ErrMin= 9.50D-07
 ErrMax= 9.50D-07  0.00D+00 EMaxC= 1.00D-01 BMatC= 2.72D-10 BMatP= 2.75D-10
 IDIUse=1 WtCom= 1.00D+00 WtEn= 0.00D+00
 Coeff-Com: -0.126D+00 0.454D-01-0.207D+00 0.505D+00-0.530D+00 0.198D+00
 Coeff-Com:  0.102D+00 0.337D+00 0.256D+00-0.103D+01-0.139D+00 0.816D+00
 Coeff-Com:  0.936D+00-0.673D-01-0.405D+01 0.320D+01 0.105D+00-0.622D+00
 Coeff-Com: -0.184D+01 0.311D+01
 Coeff:     -0.126D+00 0.454D-01-0.207D+00 0.505D+00-0.530D+00 0.198D+00
 Coeff:      0.102D+00 0.337D+00 0.256D+00-0.103D+01-0.139D+00 0.816D+00
 Coeff:      0.936D+00-0.673D-01-0.405D+01 0.320D+01 0.105D+00-0.622D+00
 Coeff:     -0.184D+01 0.311D+01
 Gap=     0.081 Goal=   None    Shift=    0.000
 Gap=     0.105 Goal=   None    Shift=    0.000
 RMSDP=1.84D-06 MaxDP=1.39D-04 DE=-2.75D-09 OVMax= 1.06D-03

 Cycle  26  Pass 1  IDiag  1:
 E= -1102.19291309147     Delta-E=       -0.000000016157 Rises=F Damp=F
 DIIS: error= 8.81D-07 at cycle  26 NSaved=  20.
 NSaved=20 IEnMin=20 EnMin= -1102.19291309147     IErMin=20 ErrMin= 8.81D-07
 ErrMax= 8.81D-07  0.00D+00 EMaxC= 1.00D-01 BMatC= 2.14D-10 BMatP= 2.72D-10
 IDIUse=1 WtCom= 1.00D+00 WtEn= 0.00D+00
 Coeff-Com:  0.129D+00-0.137D+00 0.366D+00-0.509D+00 0.339D+00 0.398D-01
 Coeff-Com:  0.358D+00-0.207D+00-0.899D+00-0.175D+00 0.967D+00 0.530D+00
 Coeff-Com: -0.782D+00-0.341D+01 0.391D+01-0.580D-01-0.742D+00 0.366D+00
 Coeff-Com:  0.402D-01 0.879D+00
 Coeff:      0.129D+00-0.137D+00 0.366D+00-0.509D+00 0.339D+00 0.398D-01
 Coeff:      0.358D+00-0.207D+00-0.899D+00-0.175D+00 0.967D+00 0.530D+00
 Coeff:     -0.782D+00-0.341D+01 0.391D+01-0.580D-01-0.742D+00 0.366D+00
 Coeff:      0.402D-01 0.879D+00
 Gap=     0.081 Goal=   None    Shift=    0.000
 Gap=     0.105 Goal=   None    Shift=    0.000
 RMSDP=1.05D-06 MaxDP=8.13D-05 DE=-1.62D-08 OVMax= 6.05D-04

 Cycle  27  Pass 1  IDiag  1:
 E= -1102.19291310015     Delta-E=       -0.000000008687 Rises=F Damp=F
 DIIS: error= 8.61D-07 at cycle  27 NSaved=  20.
 NSaved=20 IEnMin=20 EnMin= -1102.19291310015     IErMin=20 ErrMin= 8.61D-07
 ErrMax= 8.61D-07  0.00D+00 EMaxC= 1.00D-01 BMatC= 1.94D-10 BMatP= 2.14D-10
 IDIUse=1 WtCom= 1.00D+00 WtEn= 0.00D+00
 Coeff-Com: -0.104D+00 0.105D+01-0.373D+00-0.104D+01-0.550D+00-0.898D-01
 Coeff-Com:  0.207D+01-0.504D-01-0.929D+00-0.312D+00 0.974D+00 0.176D+01
 Coeff-Com: -0.531D+01 0.325D+01 0.188D+00-0.928D+00 0.485D+01-0.626D+01
 Coeff-Com: -0.282D+01 0.563D+01
 Coeff:     -0.104D+00 0.105D+01-0.373D+00-0.104D+01-0.550D+00-0.898D-01
 Coeff:      0.207D+01-0.504D-01-0.929D+00-0.312D+00 0.974D+00 0.176D+01
 Coeff:     -0.531D+01 0.325D+01 0.188D+00-0.928D+00 0.485D+01-0.626D+01
 Coeff:     -0.282D+01 0.563D+01
 Gap=     0.081 Goal=   None    Shift=    0.000
 Gap=     0.105 Goal=   None    Shift=    0.000
 RMSDP=8.41D-06 MaxDP=6.40D-04 DE=-8.69D-09 OVMax= 4.84D-03

 Cycle  28  Pass 1  IDiag  1:
 E= -1102.19291315710     Delta-E=       -0.000000056947 Rises=F Damp=F
 DIIS: error= 6.22D-07 at cycle  28 NSaved=  20.
 NSaved=20 IEnMin=20 EnMin= -1102.19291315710     IErMin=20 ErrMin= 6.22D-07
 ErrMax= 6.22D-07  0.00D+00 EMaxC= 1.00D-01 BMatC= 2.98D-10 BMatP= 1.94D-10
 IDIUse=1 WtCom= 1.00D+00 WtEn= 0.00D+00
 Coeff-Com:  0.908D+00-0.259D+00-0.935D+00-0.202D+00 0.465D+00 0.191D+01
 Coeff-Com: -0.156D+01-0.117D+01 0.548D+00 0.148D+01 0.126D+01-0.770D+01
 Coeff-Com:  0.457D+01 0.169D+01-0.562D+00-0.109D+01 0.406D+00-0.385D+01
 Coeff-Com:  0.366D+01 0.144D+01
 Coeff:      0.908D+00-0.259D+00-0.935D+00-0.202D+00 0.465D+00 0.191D+01
 Coeff:     -0.156D+01-0.117D+01 0.548D+00 0.148D+01 0.126D+01-0.770D+01
 Coeff:      0.457D+01 0.169D+01-0.562D+00-0.109D+01 0.406D+00-0.385D+01
 Coeff:      0.366D+01 0.144D+01
 Gap=     0.081 Goal=   None    Shift=    0.000
 Gap=     0.105 Goal=   None    Shift=    0.000
 RMSDP=4.02D-06 MaxDP=3.10D-04 DE=-5.69D-08 OVMax= 2.32D-03

 Cycle  29  Pass 1  IDiag  1:
 E= -1102.19291317709     Delta-E=       -0.000000019993 Rises=F Damp=F
 DIIS: error= 5.06D-07 at cycle  29 NSaved=  20.
 NSaved=20 IEnMin=20 EnMin= -1102.19291317709     IErMin=20 ErrMin= 5.06D-07
 ErrMax= 5.06D-07  0.00D+00 EMaxC= 1.00D-01 BMatC= 1.24D-10 BMatP= 1.94D-10
 IDIUse=1 WtCom= 1.00D+00 WtEn= 0.00D+00
 Coeff-Com:  0.214D+00 0.186D+00-0.332D-01-0.303D-01 0.583D+00-0.114D+01
 Coeff-Com: -0.489D+00 0.621D+00 0.685D+00 0.331D+00-0.447D+01 0.234D+01
 Coeff-Com:  0.182D+01 0.256D+00-0.431D+01 0.519D+01-0.206D+01-0.105D+01
 Coeff-Com:  0.122D+01 0.115D+01
 Coeff:      0.214D+00 0.186D+00-0.332D-01-0.303D-01 0.583D+00-0.114D+01
 Coeff:     -0.489D+00 0.621D+00 0.685D+00 0.331D+00-0.447D+01 0.234D+01
 Coeff:      0.182D+01 0.256D+00-0.431D+01 0.519D+01-0.206D+01-0.105D+01
 Coeff:      0.122D+01 0.115D+01
 Gap=     0.081 Goal=   None    Shift=    0.000
 Gap=     0.105 Goal=   None    Shift=    0.000
 RMSDP=3.95D-06 MaxDP=3.04D-04 DE=-2.00D-08 OVMax= 2.27D-03

 Cycle  30  Pass 1  IDiag  1:
 E= -1102.19291319177     Delta-E=       -0.000000014677 Rises=F Damp=F
 DIIS: error= 3.56D-07 at cycle  30 NSaved=  20.
 NSaved=20 IEnMin=20 EnMin= -1102.19291319177     IErMin=20 ErrMin= 3.56D-07
 ErrMax= 3.56D-07  0.00D+00 EMaxC= 1.00D-01 BMatC= 2.39D-10 BMatP= 1.24D-10
 IDIUse=1 WtCom= 1.00D+00 WtEn= 0.00D+00
 Coeff-Com:  0.768D-01-0.765D-01-0.401D+00 0.899D+00-0.380D+00-0.877D-01
 Coeff-Com: -0.416D+00 0.504D+00 0.169D+01-0.242D+01-0.180D+01 0.146D+01
 Coeff-Com:  0.144D+01 0.114D+01-0.438D+00 0.207D+00-0.172D+01 0.138D-01
 Coeff-Com:  0.732D-01 0.122D+01
 Coeff:      0.768D-01-0.765D-01-0.401D+00 0.899D+00-0.380D+00-0.877D-01
 Coeff:     -0.416D+00 0.504D+00 0.169D+01-0.242D+01-0.180D+01 0.146D+01
 Coeff:      0.144D+01 0.114D+01-0.438D+00 0.207D+00-0.172D+01 0.138D-01
 Coeff:      0.732D-01 0.122D+01
 Gap=     0.081 Goal=   None    Shift=    0.000
 Gap=     0.105 Goal=   None    Shift=    0.000
 RMSDP=2.55D-06 MaxDP=1.95D-04 DE=-1.47D-08 OVMax= 1.47D-03

 Cycle  31  Pass 1  IDiag  1:
 E= -1102.19291319849     Delta-E=       -0.000000006720 Rises=F Damp=F
 DIIS: error= 5.48D-07 at cycle  31 NSaved=  20.
 NSaved=20 IEnMin=20 EnMin= -1102.19291319849     IErMin=19 ErrMin= 3.56D-07
 ErrMax= 5.48D-07  0.00D+00 EMaxC= 1.00D-01 BMatC= 2.50D-10 BMatP= 1.24D-10
 IDIUse=1 WtCom= 1.00D+00 WtEn= 0.00D+00
 Coeff-Com: -0.126D+00-0.100D+00 0.489D+00 0.568D-01-0.206D+00-0.389D+00
 Coeff-Com:  0.243D+00 0.670D+00-0.106D+01-0.230D+00 0.367D+00 0.278D+00
 Coeff-Com:  0.207D+01-0.255D+01 0.963D+00-0.237D+00-0.320D+00-0.365D+00
 Coeff-Com:  0.849D+00 0.592D+00
 Coeff:     -0.126D+00-0.100D+00 0.489D+00 0.568D-01-0.206D+00-0.389D+00
 Coeff:      0.243D+00 0.670D+00-0.106D+01-0.230D+00 0.367D+00 0.278D+00
 Coeff:      0.207D+01-0.255D+01 0.963D+00-0.237D+00-0.320D+00-0.365D+00
 Coeff:      0.849D+00 0.592D+00
 Gap=     0.081 Goal=   None    Shift=    0.000
 Gap=     0.105 Goal=   None    Shift=    0.000
 RMSDP=5.58D-07 MaxDP=4.24D-05 DE=-6.72D-09 OVMax= 3.22D-04

 Cycle  32  Pass 1  IDiag  1:
 E= -1102.19291319984     Delta-E=       -0.000000001349 Rises=F Damp=F
 DIIS: error= 3.49D-07 at cycle  32 NSaved=  20.
 NSaved=20 IEnMin=20 EnMin= -1102.19291319984     IErMin=20 ErrMin= 3.49D-07
 ErrMax= 3.49D-07  0.00D+00 EMaxC= 1.00D-01 BMatC= 1.14D-10 BMatP= 1.24D-10
 IDIUse=1 WtCom= 1.00D+00 WtEn= 0.00D+00
 Coeff-Com:  0.574D-01 0.107D+00-0.556D-01-0.270D+00 0.596D-01 0.275D+00
 Coeff-Com:  0.303D+00-0.108D+01 0.705D+00 0.357D-02-0.217D+00 0.955D+00
 Coeff-Com: -0.183D+01 0.965D+00 0.454D+00-0.408D+00-0.298D+00 0.140D+00
 Coeff-Com:  0.135D+00 0.101D+01
 Coeff:      0.574D-01 0.107D+00-0.556D-01-0.270D+00 0.596D-01 0.275D+00
 Coeff:      0.303D+00-0.108D+01 0.705D+00 0.357D-02-0.217D+00 0.955D+00
 Coeff:     -0.183D+01 0.965D+00 0.454D+00-0.408D+00-0.298D+00 0.140D+00
 Coeff:      0.135D+00 0.101D+01
 Gap=     0.081 Goal=   None    Shift=    0.000
 Gap=     0.105 Goal=   None    Shift=    0.000
 RMSDP=1.06D-07 MaxDP=7.25D-06 DE=-1.35D-09 OVMax= 5.81D-05

 Cycle  33  Pass 1  IDiag  1:
 E= -1102.19291320025     Delta-E=       -0.000000000414 Rises=F Damp=F
 DIIS: error= 2.70D-07 at cycle  33 NSaved=  20.
 NSaved=20 IEnMin=20 EnMin= -1102.19291320025     IErMin=20 ErrMin= 2.70D-07
 ErrMax= 2.70D-07  0.00D+00 EMaxC= 1.00D-01 BMatC= 4.29D-11 BMatP= 1.14D-10
 IDIUse=1 WtCom= 1.00D+00 WtEn= 0.00D+00
 Coeff-Com: -0.184D+00 0.197D+00-0.192D+00 0.286D+00 0.871D-01-0.147D+00
 Coeff-Com: -0.163D+00 0.108D+01-0.515D+00-0.700D+00-0.152D+00-0.497D+00
 Coeff-Com:  0.144D+00 0.108D+01-0.134D+00-0.148D+00-0.728D+00-0.275D+00
 Coeff-Com:  0.581D+00 0.137D+01
 Coeff:     -0.184D+00 0.197D+00-0.192D+00 0.286D+00 0.871D-01-0.147D+00
 Coeff:     -0.163D+00 0.108D+01-0.515D+00-0.700D+00-0.152D+00-0.497D+00
 Coeff:      0.144D+00 0.108D+01-0.134D+00-0.148D+00-0.728D+00-0.275D+00
 Coeff:      0.581D+00 0.137D+01
 Gap=     0.081 Goal=   None    Shift=    0.000
 Gap=     0.105 Goal=   None    Shift=    0.000
 RMSDP=4.43D-07 MaxDP=3.32D-05 DE=-4.14D-10 OVMax= 2.54D-04

 Cycle  34  Pass 1  IDiag  1:
 E= -1102.19291320146     Delta-E=       -0.000000001202 Rises=F Damp=F
 DIIS: error= 2.55D-07 at cycle  34 NSaved=  20.
 NSaved=20 IEnMin=20 EnMin= -1102.19291320146     IErMin=20 ErrMin= 2.55D-07
 ErrMax= 2.55D-07  0.00D+00 EMaxC= 1.00D-01 BMatC= 9.82D-11 BMatP= 4.29D-11
 IDIUse=1 WtCom= 1.00D+00 WtEn= 0.00D+00
 Coeff-Com: -0.708D-01-0.695D-01 0.237D+00 0.162D+00-0.184D+00-0.480D+00
 Coeff-Com:  0.656D+00 0.930D-01-0.255D+00-0.212D+01 0.318D+01-0.221D+01
 Coeff-Com:  0.469D+00 0.894D+00 0.289D+00-0.124D+01 0.208D+00-0.126D+01
 Coeff-Com:  0.424D+00 0.227D+01
 Coeff:     -0.708D-01-0.695D-01 0.237D+00 0.162D+00-0.184D+00-0.480D+00
 Coeff:      0.656D+00 0.930D-01-0.255D+00-0.212D+01 0.318D+01-0.221D+01
 Coeff:      0.469D+00 0.894D+00 0.289D+00-0.124D+01 0.208D+00-0.126D+01
 Coeff:      0.424D+00 0.227D+01
 Gap=     0.081 Goal=   None    Shift=    0.000
 Gap=     0.105 Goal=   None    Shift=    0.000
 RMSDP=1.48D-06 MaxDP=1.13D-04 DE=-1.20D-09 OVMax= 8.51D-04

 Cycle  35  Pass 1  IDiag  1:
 E= -1102.19291320470     Delta-E=       -0.000000003243 Rises=F Damp=F
 DIIS: error= 2.36D-07 at cycle  35 NSaved=  20.
 NSaved=20 IEnMin=20 EnMin= -1102.19291320470     IErMin=20 ErrMin= 2.36D-07
 ErrMax= 2.36D-07  0.00D+00 EMaxC= 1.00D-01 BMatC= 4.62D-11 BMatP= 4.29D-11
 IDIUse=1 WtCom= 1.00D+00 WtEn= 0.00D+00
 Coeff-Com:  0.102D-01 0.227D-01-0.617D-01-0.226D+00 0.223D+00 0.194D+00
 Coeff-Com:  0.408D-02-0.105D+00-0.180D+01 0.244D+01-0.777D+00-0.327D+00
 Coeff-Com:  0.438D+00 0.288D+00-0.372D+00 0.152D+00-0.313D+00-0.309D+00
 Coeff-Com:  0.226D+00 0.129D+01
 Coeff:      0.102D-01 0.227D-01-0.617D-01-0.226D+00 0.223D+00 0.194D+00
 Coeff:      0.408D-02-0.105D+00-0.180D+01 0.244D+01-0.777D+00-0.327D+00
 Coeff:      0.438D+00 0.288D+00-0.372D+00 0.152D+00-0.313D+00-0.309D+00
 Coeff:      0.226D+00 0.129D+01
 Gap=     0.081 Goal=   None    Shift=    0.000
 Gap=     0.105 Goal=   None    Shift=    0.000
 RMSDP=7.54D-07 MaxDP=5.71D-05 DE=-3.24D-09 OVMax= 4.34D-04

 Cycle  36  Pass 1  IDiag  1:
 E= -1102.19291320612     Delta-E=       -0.000000001421 Rises=F Damp=F
 DIIS: error= 2.37D-07 at cycle  36 NSaved=  20.
 NSaved=20 IEnMin=20 EnMin= -1102.19291320612     IErMin=19 ErrMin= 2.36D-07
 ErrMax= 2.37D-07  0.00D+00 EMaxC= 1.00D-01 BMatC= 2.91D-11 BMatP= 4.29D-11
 IDIUse=1 WtCom= 1.00D+00 WtEn= 0.00D+00
 Coeff-Com:  0.750D-01-0.166D+00-0.309D+00 0.872D+00-0.144D+00-0.239D+00
 Coeff-Com: -0.121D+00-0.506D+00 0.132D+00 0.230D+00 0.324D+00-0.207D+00
 Coeff-Com:  0.932D-01 0.953D-02-0.393D+00 0.839D+00 0.196D+00-0.125D+01
 Coeff-Com:  0.268D+00 0.130D+01
 Coeff:      0.750D-01-0.166D+00-0.309D+00 0.872D+00-0.144D+00-0.239D+00
 Coeff:     -0.121D+00-0.506D+00 0.132D+00 0.230D+00 0.324D+00-0.207D+00
 Coeff:      0.932D-01 0.953D-02-0.393D+00 0.839D+00 0.196D+00-0.125D+01
 Coeff:      0.268D+00 0.130D+01
 Gap=     0.081 Goal=   None    Shift=    0.000
 Gap=     0.105 Goal=   None    Shift=    0.000
 RMSDP=2.05D-07 MaxDP=1.51D-05 DE=-1.42D-09 OVMax= 1.13D-04

 Cycle  37  Pass 1  IDiag  1:
 E= -1102.19291320669     Delta-E=       -0.000000000567 Rises=F Damp=F
 DIIS: error= 2.30D-07 at cycle  37 NSaved=  20.
 NSaved=20 IEnMin=20 EnMin= -1102.19291320669     IErMin=20 ErrMin= 2.30D-07
 ErrMax= 2.30D-07  0.00D+00 EMaxC= 1.00D-01 BMatC= 4.56D-11 BMatP= 2.91D-11
 IDIUse=1 WtCom= 1.00D+00 WtEn= 0.00D+00
 Coeff-Com: -0.130D+00-0.375D+00 0.770D+00-0.106D+00-0.158D+00-0.113D-01
 Coeff-Com:  0.853D+00-0.161D+01 0.293D+00 0.813D+00-0.365D+00-0.143D+00
 Coeff-Com:  0.131D+00-0.274D+00 0.904D+00 0.330D+00-0.106D+01-0.776D+00
 Coeff-Com:  0.865D+00 0.105D+01
 Coeff:     -0.130D+00-0.375D+00 0.770D+00-0.106D+00-0.158D+00-0.113D-01
 Coeff:      0.853D+00-0.161D+01 0.293D+00 0.813D+00-0.365D+00-0.143D+00
 Coeff:      0.131D+00-0.274D+00 0.904D+00 0.330D+00-0.106D+01-0.776D+00
 Coeff:      0.865D+00 0.105D+01
 Gap=     0.081 Goal=   None    Shift=    0.000
 Gap=     0.105 Goal=   None    Shift=    0.000
 RMSDP=4.81D-07 MaxDP=3.70D-05 DE=-5.67D-10 OVMax= 2.78D-04

 Cycle  38  Pass 1  IDiag  1:
 E= -1102.19291320744     Delta-E=       -0.000000000755 Rises=F Damp=F
 DIIS: error= 2.28D-07 at cycle  38 NSaved=  20.
 NSaved=20 IEnMin=20 EnMin= -1102.19291320744     IErMin=20 ErrMin= 2.28D-07
 ErrMax= 2.28D-07  0.00D+00 EMaxC= 1.00D-01 BMatC= 2.78D-11 BMatP= 2.91D-11
 IDIUse=1 WtCom= 1.00D+00 WtEn= 0.00D+00
 Coeff-Com: -0.128D+00-0.241D+00 0.654D-01 0.372D+00 0.223D+00-0.353D+00
 Coeff-Com:  0.322D+00-0.164D+01 0.127D+01 0.208D+00 0.834D-01-0.617D+00
 Coeff-Com: -0.483D+00 0.739D-02 0.114D+01 0.506D+00-0.156D+01-0.330D+00
 Coeff-Com:  0.742D+00 0.141D+01
 Coeff:     -0.128D+00-0.241D+00 0.654D-01 0.372D+00 0.223D+00-0.353D+00
 Coeff:      0.322D+00-0.164D+01 0.127D+01 0.208D+00 0.834D-01-0.617D+00
 Coeff:     -0.483D+00 0.739D-02 0.114D+01 0.506D+00-0.156D+01-0.330D+00
 Coeff:      0.742D+00 0.141D+01
 Gap=     0.081 Goal=   None    Shift=    0.000
 Gap=     0.105 Goal=   None    Shift=    0.000
 RMSDP=6.03D-07 MaxDP=4.47D-05 DE=-7.55D-10 OVMax= 3.46D-04

 Cycle  39  Pass 1  IDiag  1:
 E= -1102.19291320853     Delta-E=       -0.000000001092 Rises=F Damp=F
 DIIS: error= 2.14D-07 at cycle  39 NSaved=  20.
 NSaved=20 IEnMin=20 EnMin= -1102.19291320853     IErMin=20 ErrMin= 2.14D-07
 ErrMax= 2.14D-07  0.00D+00 EMaxC= 1.00D-01 BMatC= 4.09D-11 BMatP= 2.78D-11
 IDIUse=1 WtCom= 1.00D+00 WtEn= 0.00D+00
 Coeff-Com: -0.935D-01-0.564D+00 0.499D+00 0.431D+00-0.111D+01 0.199D+01
 Coeff-Com: -0.167D+01 0.259D-01 0.544D+00 0.233D+00-0.308D+00 0.328D-01
 Coeff-Com: -0.462D+00 0.160D+00 0.727D+00 0.343D-01-0.818D+00-0.712D+00
 Coeff-Com:  0.135D-01 0.205D+01
 Coeff:     -0.935D-01-0.564D+00 0.499D+00 0.431D+00-0.111D+01 0.199D+01
 Coeff:     -0.167D+01 0.259D-01 0.544D+00 0.233D+00-0.308D+00 0.328D-01
 Coeff:     -0.462D+00 0.160D+00 0.727D+00 0.343D-01-0.818D+00-0.712D+00
 Coeff:      0.135D-01 0.205D+01
 Gap=     0.081 Goal=   None    Shift=    0.000
 Gap=     0.105 Goal=   None    Shift=    0.000
 RMSDP=1.09D-06 MaxDP=8.18D-05 DE=-1.09D-09 OVMax= 6.28D-04

 Cycle  40  Pass 1  IDiag  1:
 E= -1102.19291320984     Delta-E=       -0.000000001306 Rises=F Damp=F
 DIIS: error= 2.12D-07 at cycle  40 NSaved=  20.
 NSaved=20 IEnMin=20 EnMin= -1102.19291320984     IErMin=20 ErrMin= 2.12D-07
 ErrMax= 2.12D-07  0.00D+00 EMaxC= 1.00D-01 BMatC= 4.61D-11 BMatP= 2.78D-11
 IDIUse=1 WtCom= 1.00D+00 WtEn= 0.00D+00
 Coeff-Com: -0.544D-02 0.630D-01 0.736D-02-0.122D+01 0.110D+01 0.502D-01
 Coeff-Com: -0.470D-01 0.413D-01 0.187D+00-0.797D-01-0.317D+00 0.159D+00
 Coeff-Com:  0.145D+00-0.214D+00 0.376D+00-0.942D-01-0.354D+00-0.775D+00
 Coeff-Com:  0.351D+00 0.162D+01
 Coeff:     -0.544D-02 0.630D-01 0.736D-02-0.122D+01 0.110D+01 0.502D-01
 Coeff:     -0.470D-01 0.413D-01 0.187D+00-0.797D-01-0.317D+00 0.159D+00
 Coeff:      0.145D+00-0.214D+00 0.376D+00-0.942D-01-0.354D+00-0.775D+00
 Coeff:      0.351D+00 0.162D+01
 Gap=     0.081 Goal=   None    Shift=    0.000
 Gap=     0.105 Goal=   None    Shift=    0.000
 RMSDP=6.58D-07 MaxDP=5.41D-05 DE=-1.31D-09 OVMax= 3.74D-04

 Cycle  41  Pass 1  IDiag  1:
 E= -1102.19291321079     Delta-E=       -0.000000000947 Rises=F Damp=F
 DIIS: error= 1.75D-07 at cycle  41 NSaved=  20.
 NSaved=20 IEnMin=20 EnMin= -1102.19291321079     IErMin=20 ErrMin= 1.75D-07
 ErrMax= 1.75D-07  0.00D+00 EMaxC= 1.00D-01 BMatC= 2.48D-11 BMatP= 2.78D-11
 IDIUse=1 WtCom= 1.00D+00 WtEn= 0.00D+00
 Coeff-Com:  0.131D-01 0.500D-01 0.423D+00-0.140D+01 0.819D+00 0.448D+00
 Coeff-Com: -0.409D+00-0.805D-01-0.361D-02-0.428D+00 0.727D+00 0.409D+00
 Coeff-Com: -0.604D+00-0.944D+00 0.439D+00 0.144D+01-0.267D+00-0.176D+01
 Coeff-Com:  0.103D+01 0.109D+01
 Coeff:      0.131D-01 0.500D-01 0.423D+00-0.140D+01 0.819D+00 0.448D+00
 Coeff:     -0.409D+00-0.805D-01-0.361D-02-0.428D+00 0.727D+00 0.409D+00
 Coeff:     -0.604D+00-0.944D+00 0.439D+00 0.144D+01-0.267D+00-0.176D+01
 Coeff:      0.103D+01 0.109D+01
 Gap=     0.081 Goal=   None    Shift=    0.000
 Gap=     0.105 Goal=   None    Shift=    0.000
 RMSDP=5.99D-07 MaxDP=4.35D-05 DE=-9.47D-10 OVMax= 3.40D-04

 Cycle  42  Pass 1  IDiag  1:
 E= -1102.19291321151     Delta-E=       -0.000000000724 Rises=F Damp=F
 DIIS: error= 1.84D-07 at cycle  42 NSaved=  20.
 NSaved=20 IEnMin=20 EnMin= -1102.19291321151     IErMin=19 ErrMin= 1.75D-07
 ErrMax= 1.84D-07  0.00D+00 EMaxC= 1.00D-01 BMatC= 5.31D-11 BMatP= 2.48D-11
 IDIUse=1 WtCom= 1.00D+00 WtEn= 0.00D+00
 Coeff-Com:  0.634D-01 0.195D+01-0.275D+01-0.171D+00 0.133D+01-0.426D+00
 Coeff-Com: -0.283D+00-0.151D+00-0.309D+00 0.756D+00 0.969D+00-0.664D+00
 Coeff-Com: -0.209D+01 0.692D+00 0.214D+01 0.137D+01-0.262D+01-0.655D+00
 Coeff-Com:  0.137D+00 0.171D+01
 Coeff:      0.634D-01 0.195D+01-0.275D+01-0.171D+00 0.133D+01-0.426D+00
 Coeff:     -0.283D+00-0.151D+00-0.309D+00 0.756D+00 0.969D+00-0.664D+00
 Coeff:     -0.209D+01 0.692D+00 0.214D+01 0.137D+01-0.262D+01-0.655D+00
 Coeff:      0.137D+00 0.171D+01
 Gap=     0.081 Goal=   None    Shift=    0.000
 Gap=     0.105 Goal=   None    Shift=    0.000
 RMSDP=3.09D-07 MaxDP=2.25D-05 DE=-7.24D-10 OVMax= 1.65D-04

 Cycle  43  Pass 1  IDiag  1:
 E= -1102.19291321204     Delta-E=       -0.000000000526 Rises=F Damp=F
 DIIS: error= 2.07D-07 at cycle  43 NSaved=  20.
 NSaved=20 IEnMin=20 EnMin= -1102.19291321204     IErMin=18 ErrMin= 1.75D-07
 ErrMax= 2.07D-07  0.00D+00 EMaxC= 1.00D-01 BMatC= 5.83D-11 BMatP= 2.48D-11
 IDIUse=1 WtCom= 1.00D+00 WtEn= 0.00D+00
 Coeff-Com:  0.230D+01-0.244D+01-0.158D+01 0.194D+01-0.687D-01-0.322D+00
 Coeff-Com: -0.472D+00-0.591D-01 0.212D+00 0.113D+01 0.755D-01-0.159D+01
 Coeff-Com: -0.443D-01 0.108D+01 0.167D+01-0.118D+01-0.119D+01-0.983D+00
 Coeff-Com:  0.112D+01 0.140D+01
 Coeff:      0.230D+01-0.244D+01-0.158D+01 0.194D+01-0.687D-01-0.322D+00
 Coeff:     -0.472D+00-0.591D-01 0.212D+00 0.113D+01 0.755D-01-0.159D+01
 Coeff:     -0.443D-01 0.108D+01 0.167D+01-0.118D+01-0.119D+01-0.983D+00
 Coeff:      0.112D+01 0.140D+01
 Gap=     0.081 Goal=   None    Shift=    0.000
 Gap=     0.105 Goal=   None    Shift=    0.000
 RMSDP=4.45D-07 MaxDP=3.65D-05 DE=-5.26D-10 OVMax= 2.47D-04

 Cycle  44  Pass 1  IDiag  1:
 E= -1102.19291321263     Delta-E=       -0.000000000594 Rises=F Damp=F
 DIIS: error= 1.31D-07 at cycle  44 NSaved=  20.
 NSaved=20 IEnMin=20 EnMin= -1102.19291321263     IErMin=20 ErrMin= 1.31D-07
 ErrMax= 1.31D-07  0.00D+00 EMaxC= 1.00D-01 BMatC= 1.25D-11 BMatP= 2.48D-11
 IDIUse=1 WtCom= 1.00D+00 WtEn= 0.00D+00
 Coeff-Com:  0.844D+00-0.198D+01 0.926D+00 0.386D+00 0.344D-01-0.567D+00
 Coeff-Com: -0.123D+00-0.635D+00 0.799D+00 0.110D+01 0.677D-01-0.765D+00
 Coeff-Com: -0.121D+01 0.219D+00 0.184D+01-0.437D+00-0.976D+00-0.130D+01
 Coeff-Com:  0.130D+01 0.148D+01
 Coeff:      0.844D+00-0.198D+01 0.926D+00 0.386D+00 0.344D-01-0.567D+00
 Coeff:     -0.123D+00-0.635D+00 0.799D+00 0.110D+01 0.677D-01-0.765D+00
 Coeff:     -0.121D+01 0.219D+00 0.184D+01-0.437D+00-0.976D+00-0.130D+01
 Coeff:      0.130D+01 0.148D+01
 Gap=     0.081 Goal=   None    Shift=    0.000
 Gap=     0.105 Goal=   None    Shift=    0.000
 RMSDP=4.05D-07 MaxDP=3.00D-05 DE=-5.94D-10 OVMax= 2.02D-04

 Cycle  45  Pass 1  IDiag  1:
 E= -1102.19291321333     Delta-E=       -0.000000000701 Rises=F Damp=F
 DIIS: error= 1.11D-07 at cycle  45 NSaved=  20.
 NSaved=20 IEnMin=20 EnMin= -1102.19291321333     IErMin=20 ErrMin= 1.11D-07
 ErrMax= 1.11D-07  0.00D+00 EMaxC= 1.00D-01 BMatC= 1.75D-11 BMatP= 1.25D-11
 IDIUse=1 WtCom= 1.00D+00 WtEn= 0.00D+00
 Coeff-Com: -0.227D+00 0.281D+00-0.532D-01 0.562D-01 0.451D-01-0.335D+00
 Coeff-Com: -0.291D-01 0.350D+00 0.773D-01-0.102D+00 0.148D+00-0.307D+00
 Coeff-Com: -0.579D+00 0.931D+00 0.138D-01 0.501D-01-0.110D+01 0.472D-01
 Coeff-Com:  0.580D+00 0.115D+01
 Coeff:     -0.227D+00 0.281D+00-0.532D-01 0.562D-01 0.451D-01-0.335D+00
 Coeff:     -0.291D-01 0.350D+00 0.773D-01-0.102D+00 0.148D+00-0.307D+00
 Coeff:     -0.579D+00 0.931D+00 0.138D-01 0.501D-01-0.110D+01 0.472D-01
 Coeff:      0.580D+00 0.115D+01
 Gap=     0.081 Goal=   None    Shift=    0.000
 Gap=     0.105 Goal=   None    Shift=    0.000
 RMSDP=6.46D-07 MaxDP=5.33D-05 DE=-7.01D-10 OVMax= 3.55D-04

 Cycle  46  Pass 1  IDiag  1:
 E= -1102.19291321359     Delta-E=       -0.000000000256 Rises=F Damp=F
 DIIS: error= 1.20D-07 at cycle  46 NSaved=  20.
 NSaved=20 IEnMin=20 EnMin= -1102.19291321359     IErMin=19 ErrMin= 1.11D-07
 ErrMax= 1.20D-07  0.00D+00 EMaxC= 1.00D-01 BMatC= 1.49D-11 BMatP= 1.25D-11
 IDIUse=1 WtCom= 1.00D+00 WtEn= 0.00D+00
 Coeff-Com:  0.986D-02-0.268D-01 0.302D-01 0.130D+00-0.109D+00 0.547D-01
 Coeff-Com: -0.588D-01-0.958D-01 0.156D+00 0.216D+00-0.231D+00-0.531D+00
 Coeff-Com:  0.503D+00 0.992D-01 0.379D-01-0.409D+00-0.178D+00 0.108D+00
 Coeff-Com:  0.682D+00 0.613D+00
 Coeff:      0.986D-02-0.268D-01 0.302D-01 0.130D+00-0.109D+00 0.547D-01
 Coeff:     -0.588D-01-0.958D-01 0.156D+00 0.216D+00-0.231D+00-0.531D+00
 Coeff:      0.503D+00 0.992D-01 0.379D-01-0.409D+00-0.178D+00 0.108D+00
 Coeff:      0.682D+00 0.613D+00
 Gap=     0.081 Goal=   None    Shift=    0.000
 Gap=     0.105 Goal=   None    Shift=    0.000
 RMSDP=8.69D-08 MaxDP=6.73D-06 DE=-2.56D-10 OVMax= 4.36D-05

 Cycle  47  Pass 1  IDiag  1:
 E= -1102.19291321369     Delta-E=       -0.000000000098 Rises=F Damp=F
 DIIS: error= 1.15D-07 at cycle  47 NSaved=  20.
 NSaved=20 IEnMin=20 EnMin= -1102.19291321369     IErMin=18 ErrMin= 1.11D-07
 ErrMax= 1.15D-07  0.00D+00 EMaxC= 1.00D-01 BMatC= 8.38D-12 BMatP= 1.25D-11
 IDIUse=1 WtCom= 1.00D+00 WtEn= 0.00D+00
 Coeff-Com: -0.175D-01 0.101D-01 0.989D-01-0.313D-02 0.954D-01-0.121D+00
 Coeff-Com: -0.196D+00 0.241D+00 0.139D+00-0.241D+00-0.270D+00 0.248D+00
 Coeff-Com:  0.108D+00-0.690D-01-0.167D-01-0.823D-01-0.481D-01 0.162D+00
 Coeff-Com:  0.134D+00 0.828D+00
 Coeff:     -0.175D-01 0.101D-01 0.989D-01-0.313D-02 0.954D-01-0.121D+00
 Coeff:     -0.196D+00 0.241D+00 0.139D+00-0.241D+00-0.270D+00 0.248D+00
 Coeff:      0.108D+00-0.690D-01-0.167D-01-0.823D-01-0.481D-01 0.162D+00
 Coeff:      0.134D+00 0.828D+00
 Gap=     0.081 Goal=   None    Shift=    0.000
 Gap=     0.105 Goal=   None    Shift=    0.000
 RMSDP=3.69D-08 MaxDP=3.11D-06 DE=-9.85D-11 OVMax= 2.03D-05

 Cycle  48  Pass 1  IDiag  1:
 E= -1102.19291321374     Delta-E=       -0.000000000055 Rises=F Damp=F
 DIIS: error= 1.14D-07 at cycle  48 NSaved=  20.
 NSaved=20 IEnMin=20 EnMin= -1102.19291321374     IErMin=17 ErrMin= 1.11D-07
 ErrMax= 1.14D-07  0.00D+00 EMaxC= 1.00D-01 BMatC= 6.21D-12 BMatP= 8.38D-12
 IDIUse=1 WtCom= 1.00D+00 WtEn= 0.00D+00
 Coeff-Com: -0.183D-02 0.713D-01 0.108D-01 0.882D-02-0.717D-01-0.898D-01
 Coeff-Com:  0.125D+00 0.880D-01-0.454D-01-0.236D+00 0.135D+00 0.347D-01
 Coeff-Com: -0.272D-01-0.186D-01-0.110D-01 0.174D-01 0.504D-01-0.156D+00
 Coeff-Com: -0.121D+00 0.124D+01
 Coeff:     -0.183D-02 0.713D-01 0.108D-01 0.882D-02-0.717D-01-0.898D-01
 Coeff:      0.125D+00 0.880D-01-0.454D-01-0.236D+00 0.135D+00 0.347D-01
 Coeff:     -0.272D-01-0.186D-01-0.110D-01 0.174D-01 0.504D-01-0.156D+00
 Coeff:     -0.121D+00 0.124D+01
 Gap=     0.081 Goal=   None    Shift=    0.000
 Gap=     0.105 Goal=   None    Shift=    0.000
 RMSDP=1.15D-07 MaxDP=8.36D-06 DE=-5.53D-11 OVMax= 6.58D-05

 Cycle  49  Pass 1  IDiag  1:
 E= -1102.19291321374     Delta-E=        0.000000000000 Rises=F Damp=F
 DIIS: error= 1.16D-07 at cycle  49 NSaved=  20.
 NSaved=20 IEnMin=19 EnMin= -1102.19291321374     IErMin=16 ErrMin= 1.11D-07
 ErrMax= 1.16D-07  0.00D+00 EMaxC= 1.00D-01 BMatC= 6.41D-12 BMatP= 6.21D-12
 IDIUse=1 WtCom= 1.00D+00 WtEn= 0.00D+00
 Coeff-Com:  0.632D-01-0.201D+00-0.382D-01 0.298D+00-0.624D-02-0.303D+00
 Coeff-Com:  0.101D+00 0.136D+00-0.230D+00 0.461D+00-0.224D+00 0.693D-01
 Coeff-Com: -0.623D+00 0.155D+00 0.347D+00 0.560D+00-0.101D-01-0.292D+01
 Coeff-Com:  0.210D+00 0.315D+01
 Coeff:      0.632D-01-0.201D+00-0.382D-01 0.298D+00-0.624D-02-0.303D+00
 Coeff:      0.101D+00 0.136D+00-0.230D+00 0.461D+00-0.224D+00 0.693D-01
 Coeff:     -0.623D+00 0.155D+00 0.347D+00 0.560D+00-0.101D-01-0.292D+01
 Coeff:      0.210D+00 0.315D+01
 Gap=     0.081 Goal=   None    Shift=    0.000
 Gap=     0.105 Goal=   None    Shift=    0.000
 RMSDP=7.64D-08 MaxDP=5.27D-06 DE= 4.55D-13 OVMax= 4.25D-05

 Cycle  50  Pass 1  IDiag  1:
 E= -1102.19291321383     Delta-E=       -0.000000000088 Rises=F Damp=F
 DIIS: error= 1.15D-07 at cycle  50 NSaved=  20.
 NSaved=20 IEnMin=20 EnMin= -1102.19291321383     IErMin=15 ErrMin= 1.11D-07
 ErrMax= 1.15D-07  0.00D+00 EMaxC= 1.00D-01 BMatC= 6.33D-12 BMatP= 6.21D-12
 IDIUse=1 WtCom= 1.00D+00 WtEn= 0.00D+00
 Coeff-Com: -0.258D+00-0.192D+00 0.487D+00 0.163D+00-0.345D+00-0.374D-01
 Coeff-Com:  0.243D+00-0.219D-01 0.646D-01-0.115D+00 0.287D+00-0.646D+00
 Coeff-Com: -0.238D+00 0.345D+00 0.996D+00 0.840D+00-0.335D+01-0.311D+01
 Coeff-Com:  0.222D+01 0.367D+01
 Coeff:     -0.258D+00-0.192D+00 0.487D+00 0.163D+00-0.345D+00-0.374D-01
 Coeff:      0.243D+00-0.219D-01 0.646D-01-0.115D+00 0.287D+00-0.646D+00
 Coeff:     -0.238D+00 0.345D+00 0.996D+00 0.840D+00-0.335D+01-0.311D+01
 Coeff:      0.222D+01 0.367D+01
 Gap=     0.081 Goal=   None    Shift=    0.000
 Gap=     0.105 Goal=   None    Shift=    0.000
 RMSDP=2.66D-07 MaxDP=1.92D-05 DE=-8.82D-11 OVMax= 1.47D-04

 Cycle  51  Pass 1  IDiag  1:
 E= -1102.19291321421     Delta-E=       -0.000000000377 Rises=F Damp=F
 DIIS: error= 1.11D-07 at cycle  51 NSaved=  20.
 NSaved=20 IEnMin=20 EnMin= -1102.19291321421     IErMin=20 ErrMin= 1.11D-07
 ErrMax= 1.11D-07  0.00D+00 EMaxC= 1.00D-01 BMatC= 5.48D-12 BMatP= 6.21D-12
 IDIUse=1 WtCom= 1.00D+00 WtEn= 0.00D+00
 Coeff-Com:  0.664D-01-0.230D+00-0.238D-01 0.117D+00 0.280D+00 0.199D+00
 Coeff-Com:  0.885D-01-0.134D+01 0.533D+00 0.544D+00 0.109D+01-0.104D+01
 Coeff-Com: -0.848D+00-0.712D-01 0.914D+00 0.430D+01-0.291D+01-0.406D+01
 Coeff-Com:  0.534D+00 0.286D+01
 Coeff:      0.664D-01-0.230D+00-0.238D-01 0.117D+00 0.280D+00 0.199D+00
 Coeff:      0.885D-01-0.134D+01 0.533D+00 0.544D+00 0.109D+01-0.104D+01
 Coeff:     -0.848D+00-0.712D-01 0.914D+00 0.430D+01-0.291D+01-0.406D+01
 Coeff:      0.534D+00 0.286D+01
 Gap=     0.081 Goal=   None    Shift=    0.000
 Gap=     0.105 Goal=   None    Shift=    0.000
 RMSDP=5.32D-07 MaxDP=4.05D-05 DE=-3.77D-10 OVMax= 2.94D-04

 Cycle  52  Pass 1  IDiag  1:
 E= -1102.19291321496     Delta-E=       -0.000000000753 Rises=F Damp=F
 DIIS: error= 9.93D-08 at cycle  52 NSaved=  20.
 NSaved=20 IEnMin=20 EnMin= -1102.19291321496     IErMin=20 ErrMin= 9.93D-08
 ErrMax= 9.93D-08  0.00D+00 EMaxC= 1.00D-01 BMatC= 5.81D-12 BMatP= 5.48D-12
 IDIUse=1 WtCom= 1.00D+00 WtEn= 0.00D+00
 Coeff-Com: -0.100D+00-0.830D-02-0.794D-01 0.248D+00 0.327D+00 0.136D+00
 Coeff-Com: -0.123D+01 0.365D+00 0.546D+00 0.918D+00-0.811D+00-0.704D+00
 Coeff-Com: -0.232D+00 0.584D+00 0.391D+01-0.121D+01-0.327D+01-0.920D+00
 Coeff-Com:  0.149D+01 0.105D+01
 Coeff:     -0.100D+00-0.830D-02-0.794D-01 0.248D+00 0.327D+00 0.136D+00
 Coeff:     -0.123D+01 0.365D+00 0.546D+00 0.918D+00-0.811D+00-0.704D+00
 Coeff:     -0.232D+00 0.584D+00 0.391D+01-0.121D+01-0.327D+01-0.920D+00
 Coeff:      0.149D+01 0.105D+01
 Gap=     0.081 Goal=   None    Shift=    0.000
 Gap=     0.105 Goal=   None    Shift=    0.000
 RMSDP=3.62D-07 MaxDP=2.75D-05 DE=-7.53D-10 OVMax= 2.01D-04

 Cycle  53  Pass 1  IDiag  1:
 E= -1102.19291321542     Delta-E=       -0.000000000461 Rises=F Damp=F
 DIIS: error= 9.55D-08 at cycle  53 NSaved=  20.
 NSaved=20 IEnMin=20 EnMin= -1102.19291321542     IErMin=20 ErrMin= 9.55D-08
 ErrMax= 9.55D-08  0.00D+00 EMaxC= 1.00D-01 BMatC= 4.69D-12 BMatP= 5.48D-12
 IDIUse=1 WtCom= 1.00D+00 WtEn= 0.00D+00
 Coeff-Com: -0.345D-01-0.211D+00 0.916D-01 0.471D+00 0.111D+00-0.650D+00
 Coeff-Com: -0.269D-02 0.266D+00 0.330D+00-0.250D+00-0.261D+00-0.881D-01
 Coeff-Com:  0.376D+00 0.116D+01-0.226D-01-0.244D+00-0.926D+00-0.919D+00
 Coeff-Com:  0.637D+00 0.117D+01
 Coeff:     -0.345D-01-0.211D+00 0.916D-01 0.471D+00 0.111D+00-0.650D+00
 Coeff:     -0.269D-02 0.266D+00 0.330D+00-0.250D+00-0.261D+00-0.881D-01
 Coeff:      0.376D+00 0.116D+01-0.226D-01-0.244D+00-0.926D+00-0.919D+00
 Coeff:      0.637D+00 0.117D+01
 Gap=     0.081 Goal=   None    Shift=    0.000
 Gap=     0.105 Goal=   None    Shift=    0.000
 RMSDP=3.72D-07 MaxDP=2.67D-05 DE=-4.61D-10 OVMax= 2.09D-04

 Cycle  54  Pass 1  IDiag  1:
 E= -1102.19291321587     Delta-E=       -0.000000000451 Rises=F Damp=F
 DIIS: error= 9.06D-08 at cycle  54 NSaved=  20.
 NSaved=20 IEnMin=20 EnMin= -1102.19291321587     IErMin=20 ErrMin= 9.06D-08
 ErrMax= 9.06D-08  0.00D+00 EMaxC= 1.00D-01 BMatC= 3.54D-12 BMatP= 4.69D-12
 IDIUse=1 WtCom= 1.00D+00 WtEn= 0.00D+00
 Coeff-Com: -0.685D-01-0.597D-01 0.291D+00 0.674D-01-0.195D+00-0.110D+00
 Coeff-Com: -0.125D-01 0.103D-01 0.182D-01 0.788D-01 0.653D-01 0.486D-01
 Coeff-Com: -0.540D+00 0.177D+00 0.467D+00 0.569D+00-0.122D+01-0.106D+00
 Coeff-Com:  0.669D+00 0.853D+00
 Coeff:     -0.685D-01-0.597D-01 0.291D+00 0.674D-01-0.195D+00-0.110D+00
 Coeff:     -0.125D-01 0.103D-01 0.182D-01 0.788D-01 0.653D-01 0.486D-01
 Coeff:     -0.540D+00 0.177D+00 0.467D+00 0.569D+00-0.122D+01-0.106D+00
 Coeff:      0.669D+00 0.853D+00
 Gap=     0.081 Goal=   None    Shift=    0.000
 Gap=     0.105 Goal=   None    Shift=    0.000
 RMSDP=1.66D-07 MaxDP=1.17D-05 DE=-4.51D-10 OVMax= 9.34D-05

 Cycle  55  Pass 1  IDiag  1:
 E= -1102.19291321605     Delta-E=       -0.000000000181 Rises=F Damp=F
 DIIS: error= 9.01D-08 at cycle  55 NSaved=  20.
 NSaved=20 IEnMin=20 EnMin= -1102.19291321605     IErMin=20 ErrMin= 9.01D-08
 ErrMax= 9.01D-08  0.00D+00 EMaxC= 1.00D-01 BMatC= 3.15D-12 BMatP= 3.54D-12
 IDIUse=1 WtCom= 1.00D+00 WtEn= 0.00D+00
 Coeff-Com:  0.566D-01 0.285D-01-0.134D+00 0.149D+00-0.835D-01-0.720D-01
 Coeff-Com: -0.481D-01-0.266D-01 0.816D-01 0.242D+00 0.525D-01-0.751D+00
 Coeff-Com: -0.112D+00 0.245D+00 0.533D+00 0.759D-01-0.480D+00-0.167D+00
 Coeff-Com:  0.447D+00 0.963D+00
 Coeff:      0.566D-01 0.285D-01-0.134D+00 0.149D+00-0.835D-01-0.720D-01
 Coeff:     -0.481D-01-0.266D-01 0.816D-01 0.242D+00 0.525D-01-0.751D+00
 Coeff:     -0.112D+00 0.245D+00 0.533D+00 0.759D-01-0.480D+00-0.167D+00
 Coeff:      0.447D+00 0.963D+00
 Gap=     0.081 Goal=   None    Shift=    0.000
 Gap=     0.105 Goal=   None    Shift=    0.000
 RMSDP=1.44D-07 MaxDP=1.13D-05 DE=-1.81D-10 OVMax= 8.30D-05

 Cycle  56  Pass 1  IDiag  1:
 E= -1102.19291321620     Delta-E=       -0.000000000149 Rises=F Damp=F
 DIIS: error= 8.75D-08 at cycle  56 NSaved=  20.
 NSaved=20 IEnMin=20 EnMin= -1102.19291321620     IErMin=20 ErrMin= 8.75D-08
 ErrMax= 8.75D-08  0.00D+00 EMaxC= 1.00D-01 BMatC= 2.97D-12 BMatP= 3.15D-12
 IDIUse=1 WtCom= 1.00D+00 WtEn= 0.00D+00
 Coeff-Com:  0.530D-01-0.175D+00 0.540D-01 0.703D-01 0.409D-01 0.101D+00
 Coeff-Com: -0.754D-01-0.102D+00-0.290D-02-0.125D+00 0.115D+00 0.101D+01
 Coeff-Com: -0.545D+00-0.573D+00 0.134D+00 0.705D-01-0.811D-03-0.599D+00
 Coeff-Com: -0.197D+00 0.174D+01
 Coeff:      0.530D-01-0.175D+00 0.540D-01 0.703D-01 0.409D-01 0.101D+00
 Coeff:     -0.754D-01-0.102D+00-0.290D-02-0.125D+00 0.115D+00 0.101D+01
 Coeff:     -0.545D+00-0.573D+00 0.134D+00 0.705D-01-0.811D-03-0.599D+00
 Coeff:     -0.197D+00 0.174D+01
 Gap=     0.081 Goal=   None    Shift=    0.000
 Gap=     0.105 Goal=   None    Shift=    0.000
 RMSDP=2.65D-07 MaxDP=2.23D-05 DE=-1.49D-10 OVMax= 1.53D-04

 Cycle  57  Pass 1  IDiag  1:
 E= -1102.19291321642     Delta-E=       -0.000000000224 Rises=F Damp=F
 DIIS: error= 8.06D-08 at cycle  57 NSaved=  20.
 NSaved=20 IEnMin=20 EnMin= -1102.19291321642     IErMin=20 ErrMin= 8.06D-08
 ErrMax= 8.06D-08  0.00D+00 EMaxC= 1.00D-01 BMatC= 2.87D-12 BMatP= 2.97D-12
 IDIUse=1 WtCom= 1.00D+00 WtEn= 0.00D+00
 Coeff-Com: -0.305D+00 0.224D+00 0.121D+00 0.997D-01 0.449D-02-0.507D-01
 Coeff-Com: -0.193D+00-0.282D-01-0.144D-01 0.864D+00 0.836D+00-0.365D+00
 Coeff-Com: -0.161D+01 0.110D+00 0.717D+00 0.230D+00-0.129D+01-0.122D+01
 Coeff-Com:  0.146D+01 0.141D+01
 Coeff:     -0.305D+00 0.224D+00 0.121D+00 0.997D-01 0.449D-02-0.507D-01
 Coeff:     -0.193D+00-0.282D-01-0.144D-01 0.864D+00 0.836D+00-0.365D+00
 Coeff:     -0.161D+01 0.110D+00 0.717D+00 0.230D+00-0.129D+01-0.122D+01
 Coeff:      0.146D+01 0.141D+01
 Gap=     0.081 Goal=   None    Shift=    0.000
 Gap=     0.105 Goal=   None    Shift=    0.000
 RMSDP=4.58D-07 MaxDP=3.88D-05 DE=-2.24D-10 OVMax= 2.65D-04

 Cycle  58  Pass 1  IDiag  1:
 E= -1102.19291321670     Delta-E=       -0.000000000276 Rises=F Damp=F
 DIIS: error= 7.10D-08 at cycle  58 NSaved=  20.
 NSaved=20 IEnMin=20 EnMin= -1102.19291321670     IErMin=20 ErrMin= 7.10D-08
 ErrMax= 7.10D-08  0.00D+00 EMaxC= 1.00D-01 BMatC= 2.64D-12 BMatP= 2.87D-12
 IDIUse=1 WtCom= 1.00D+00 WtEn= 0.00D+00
 Coeff-Com:  0.177D+00-0.203D+00-0.599D-02-0.267D+00 0.195D+00 0.488D-01
 Coeff-Com:  0.266D+00 0.280D+00-0.172D+00-0.118D+01 0.146D+01-0.550D+00
 Coeff-Com: -0.486D+00 0.524D+00 0.532D+00-0.156D+00-0.812D+00-0.101D+01
 Coeff-Com:  0.752D+00 0.160D+01
 Coeff:      0.177D+00-0.203D+00-0.599D-02-0.267D+00 0.195D+00 0.488D-01
 Coeff:      0.266D+00 0.280D+00-0.172D+00-0.118D+01 0.146D+01-0.550D+00
 Coeff:     -0.486D+00 0.524D+00 0.532D+00-0.156D+00-0.812D+00-0.101D+01
 Coeff:      0.752D+00 0.160D+01
 Gap=     0.081 Goal=   None    Shift=    0.000
 Gap=     0.105 Goal=   None    Shift=    0.000
 RMSDP=5.29D-07 MaxDP=4.39D-05 DE=-2.76D-10 OVMax= 3.06D-04

 Cycle  59  Pass 1  IDiag  1:
 E= -1102.19291321695     Delta-E=       -0.000000000249 Rises=F Damp=F
 DIIS: error= 6.53D-08 at cycle  59 NSaved=  20.
 NSaved=20 IEnMin=20 EnMin= -1102.19291321695     IErMin=20 ErrMin= 6.53D-08
 ErrMax= 6.53D-08  0.00D+00 EMaxC= 1.00D-01 BMatC= 2.28D-12 BMatP= 2.64D-12
 IDIUse=1 WtCom= 1.00D+00 WtEn= 0.00D+00
 Coeff-Com:  0.137D-01 0.495D-01-0.952D-01-0.207D-01 0.546D-01 0.225D-01
 Coeff-Com:  0.192D+00 0.657D+00-0.844D+00 0.245D+00-0.384D+00-0.139D+00
 Coeff-Com:  0.229D+00 0.351D+00-0.188D-01-0.352D-01-0.616D+00-0.416D+00
 Coeff-Com:  0.260D+00 0.149D+01
 Coeff:      0.137D-01 0.495D-01-0.952D-01-0.207D-01 0.546D-01 0.225D-01
 Coeff:      0.192D+00 0.657D+00-0.844D+00 0.245D+00-0.384D+00-0.139D+00
 Coeff:      0.229D+00 0.351D+00-0.188D-01-0.352D-01-0.616D+00-0.416D+00
 Coeff:      0.260D+00 0.149D+01
 Gap=     0.081 Goal=   None    Shift=    0.000
 Gap=     0.105 Goal=   None    Shift=    0.000
 RMSDP=5.65D-07 MaxDP=4.70D-05 DE=-2.49D-10 OVMax= 3.27D-04

 Cycle  60  Pass 1  IDiag  1:
 E= -1102.19291321712     Delta-E=       -0.000000000171 Rises=F Damp=F
 DIIS: error= 6.74D-08 at cycle  60 NSaved=  20.
 NSaved=20 IEnMin=20 EnMin= -1102.19291321712     IErMin=19 ErrMin= 6.53D-08
 ErrMax= 6.74D-08  0.00D+00 EMaxC= 1.00D-01 BMatC= 2.12D-12 BMatP= 2.28D-12
 IDIUse=1 WtCom= 1.00D+00 WtEn= 0.00D+00
 Coeff-Com:  0.529D-01-0.885D-01 0.954D-02 0.418D-01-0.179D-01-0.132D-01
 Coeff-Com: -0.337D+00-0.371D+00 0.171D+00 0.620D+00 0.995D-01-0.194D+00
 Coeff-Com: -0.222D+00 0.137D+00 0.434D+00 0.221D+00-0.602D+00-0.750D+00
 Coeff-Com:  0.612D+00 0.120D+01
 Coeff:      0.529D-01-0.885D-01 0.954D-02 0.418D-01-0.179D-01-0.132D-01
 Coeff:     -0.337D+00-0.371D+00 0.171D+00 0.620D+00 0.995D-01-0.194D+00
 Coeff:     -0.222D+00 0.137D+00 0.434D+00 0.221D+00-0.602D+00-0.750D+00
 Coeff:      0.612D+00 0.120D+01
 Gap=     0.081 Goal=   None    Shift=    0.000
 Gap=     0.105 Goal=   None    Shift=    0.000
 RMSDP=3.44D-07 MaxDP=2.91D-05 DE=-1.71D-10 OVMax= 1.99D-04

 Cycle  61  Pass 1  IDiag  1:
 E= -1102.19291321722     Delta-E=       -0.000000000100 Rises=F Damp=F
 DIIS: error= 6.94D-08 at cycle  61 NSaved=  20.
 NSaved=20 IEnMin=20 EnMin= -1102.19291321722     IErMin=18 ErrMin= 6.53D-08
 ErrMax= 6.94D-08  0.00D+00 EMaxC= 1.00D-01 BMatC= 2.02D-12 BMatP= 2.12D-12
 IDIUse=1 WtCom= 1.00D+00 WtEn= 0.00D+00
 Coeff-Com:  0.386D-01 0.547D-02-0.213D-01-0.270D-01-0.175D+00-0.775D+00
 Coeff-Com:  0.425D+00 0.217D+00 0.582D+00 0.310D-01-0.389D+00-0.363D+00
 Coeff-Com:  0.518D-01 0.384D+00 0.638D+00-0.114D+00-0.822D+00-0.212D+00
 Coeff-Com:  0.564D+00 0.962D+00
 Coeff:      0.386D-01 0.547D-02-0.213D-01-0.270D-01-0.175D+00-0.775D+00
 Coeff:      0.425D+00 0.217D+00 0.582D+00 0.310D-01-0.389D+00-0.363D+00
 Coeff:      0.518D-01 0.384D+00 0.638D+00-0.114D+00-0.822D+00-0.212D+00
 Coeff:      0.564D+00 0.962D+00
 Gap=     0.081 Goal=   None    Shift=    0.000
 Gap=     0.105 Goal=   None    Shift=    0.000
 RMSDP=1.16D-07 MaxDP=9.79D-06 DE=-1.00D-10 OVMax= 6.69D-05

 Cycle  62  Pass 1  IDiag  1:
 E= -1102.19291321725     Delta-E=       -0.000000000029 Rises=F Damp=F
 DIIS: error= 6.77D-08 at cycle  62 NSaved=  20.
 NSaved=20 IEnMin=20 EnMin= -1102.19291321725     IErMin=17 ErrMin= 6.53D-08
 ErrMax= 6.77D-08  0.00D+00 EMaxC= 1.00D-01 BMatC= 1.89D-12 BMatP= 2.02D-12
 IDIUse=1 WtCom= 1.00D+00 WtEn= 0.00D+00
 Large coefficients: NSaved= 20 BigCof=    0.00 CofMax=   10.00 Det=-8.56D-15
 Inversion failed.  Reducing to 19 matrices.
 Coeff-Com: -0.422D-01 0.907D-01 0.182D+00-0.804D-01-0.956D+00 0.835D+00
 Coeff-Com:  0.851D-02-0.831D-01 0.414D-01 0.173D+00-0.969D-02-0.207D+00
 Coeff-Com: -0.500D+00 0.493D+00 0.653D+00-0.599D+00-0.872D+00 0.282D+00
 Coeff-Com:  0.159D+01
 Coeff:     -0.422D-01 0.907D-01 0.182D+00-0.804D-01-0.956D+00 0.835D+00
 Coeff:      0.851D-02-0.831D-01 0.414D-01 0.173D+00-0.969D-02-0.207D+00
 Coeff:     -0.500D+00 0.493D+00 0.653D+00-0.599D+00-0.872D+00 0.282D+00
 Coeff:      0.159D+01
 Gap=     0.081 Goal=   None    Shift=    0.000
 Gap=     0.105 Goal=   None    Shift=    0.000
 RMSDP=1.38D-07 MaxDP=1.15D-05 DE=-2.91D-11 OVMax= 7.95D-05

 Cycle  63  Pass 1  IDiag  1:
 E= -1102.19291321731     Delta-E=       -0.000000000058 Rises=F Damp=F
 DIIS: error= 6.66D-08 at cycle  63 NSaved=  20.
 NSaved=20 IEnMin=20 EnMin= -1102.19291321731     IErMin=16 ErrMin= 6.53D-08
 ErrMax= 6.66D-08  0.00D+00 EMaxC= 1.00D-01 BMatC= 1.81D-12 BMatP= 1.89D-12
 IDIUse=1 WtCom= 1.00D+00 WtEn= 0.00D+00
 Coeff-Com: -0.286D+00 0.469D+00 0.947D+00 0.751D+00-0.326D+01 0.149D+01
 Coeff-Com: -0.818D+00 0.136D+00 0.751D+00 0.128D+01-0.394D+00-0.162D+01
 Coeff-Com: -0.240D+01 0.234D+01 0.392D+01-0.183D+01-0.466D+01-0.233D+01
 Coeff-Com:  0.330D+01 0.321D+01
 Coeff:     -0.286D+00 0.469D+00 0.947D+00 0.751D+00-0.326D+01 0.149D+01
 Coeff:     -0.818D+00 0.136D+00 0.751D+00 0.128D+01-0.394D+00-0.162D+01
 Coeff:     -0.240D+01 0.234D+01 0.392D+01-0.183D+01-0.466D+01-0.233D+01
 Coeff:      0.330D+01 0.321D+01
 Gap=     0.081 Goal=   None    Shift=    0.000
 Gap=     0.105 Goal=   None    Shift=    0.000
 RMSDP=3.59D-07 MaxDP=2.72D-05 DE=-5.84D-11 OVMax= 2.03D-04

 Cycle  64  Pass 1  IDiag  1:
 E= -1102.19291321759     Delta-E=       -0.000000000281 Rises=F Damp=F
 DIIS: error= 5.36D-08 at cycle  64 NSaved=  20.
 NSaved=20 IEnMin=20 EnMin= -1102.19291321759     IErMin=20 ErrMin= 5.36D-08
 ErrMax= 5.36D-08  0.00D+00 EMaxC= 1.00D-01 BMatC= 1.73D-12 BMatP= 1.81D-12
 IDIUse=1 WtCom= 1.00D+00 WtEn= 0.00D+00
 Coeff-Com:  0.137D+00 0.213D+00 0.575D+00-0.109D+01 0.975D-01-0.959D+00
 Coeff-Com:  0.804D+00 0.450D+00 0.553D+00-0.202D+00-0.629D+00-0.121D+01
 Coeff-Com:  0.859D+00 0.180D+01-0.557D+00-0.211D+01-0.161D+01 0.670D+00
 Coeff-Com:  0.208D+01 0.112D+01
 Coeff:      0.137D+00 0.213D+00 0.575D+00-0.109D+01 0.975D-01-0.959D+00
 Coeff:      0.804D+00 0.450D+00 0.553D+00-0.202D+00-0.629D+00-0.121D+01
 Coeff:      0.859D+00 0.180D+01-0.557D+00-0.211D+01-0.161D+01 0.670D+00
 Coeff:      0.208D+01 0.112D+01
 Gap=     0.081 Goal=   None    Shift=    0.000
 Gap=     0.105 Goal=   None    Shift=    0.000
 RMSDP=2.90D-07 MaxDP=2.21D-05 DE=-2.81D-10 OVMax= 1.63D-04

 Cycle  65  Pass 1  IDiag  1:
 E= -1102.19291321778     Delta-E=       -0.000000000186 Rises=F Damp=F
 DIIS: error= 4.42D-08 at cycle  65 NSaved=  20.
 NSaved=20 IEnMin=20 EnMin= -1102.19291321778     IErMin=20 ErrMin= 4.42D-08
 ErrMax= 4.42D-08  0.00D+00 EMaxC= 1.00D-01 BMatC= 1.03D-12 BMatP= 1.73D-12
 IDIUse=1 WtCom= 1.00D+00 WtEn= 0.00D+00
 Coeff-Com:  0.194D-01 0.306D+00-0.120D+00-0.313D+00-0.368D+00 0.341D+00
 Coeff-Com:  0.258D+00 0.287D+00-0.136D+00-0.525D+00-0.470D+00 0.540D+00
 Coeff-Com:  0.948D+00-0.521D+00-0.546D+00-0.650D+00-0.103D+00 0.576D+00
 Coeff-Com:  0.495D+00 0.982D+00
 Coeff:      0.194D-01 0.306D+00-0.120D+00-0.313D+00-0.368D+00 0.341D+00
 Coeff:      0.258D+00 0.287D+00-0.136D+00-0.525D+00-0.470D+00 0.540D+00
 Coeff:      0.948D+00-0.521D+00-0.546D+00-0.650D+00-0.103D+00 0.576D+00
 Coeff:      0.495D+00 0.982D+00
 Gap=     0.081 Goal=   None    Shift=    0.000
 Gap=     0.105 Goal=   None    Shift=    0.000
 RMSDP=2.83D-07 MaxDP=2.17D-05 DE=-1.86D-10 OVMax= 1.61D-04

 Cycle  66  Pass 1  IDiag  1:
 E= -1102.19291321792     Delta-E=       -0.000000000141 Rises=F Damp=F
 DIIS: error= 3.45D-08 at cycle  66 NSaved=  20.
 NSaved=20 IEnMin=20 EnMin= -1102.19291321792     IErMin=20 ErrMin= 3.45D-08
 ErrMax= 3.45D-08  0.00D+00 EMaxC= 1.00D-01 BMatC= 7.30D-13 BMatP= 1.03D-12
 IDIUse=1 WtCom= 1.00D+00 WtEn= 0.00D+00
 Coeff-Com: -0.646D+00-0.265D+00 0.548D+00 0.923D+00-0.254D+00-0.408D+00
 Coeff-Com: -0.362D+00 0.193D+00 0.217D+00 0.195D+00 0.148D+00 0.789D-01
 Coeff-Com: -0.833D+00-0.126D+00 0.125D+01 0.727D+00-0.103D+01-0.118D+01
 Coeff-Com: -0.221D-01 0.185D+01
 Coeff:     -0.646D+00-0.265D+00 0.548D+00 0.923D+00-0.254D+00-0.408D+00
 Coeff:     -0.362D+00 0.193D+00 0.217D+00 0.195D+00 0.148D+00 0.789D-01
 Coeff:     -0.833D+00-0.126D+00 0.125D+01 0.727D+00-0.103D+01-0.118D+01
 Coeff:     -0.221D-01 0.185D+01
 Gap=     0.081 Goal=   None    Shift=    0.000
 Gap=     0.105 Goal=   None    Shift=    0.000
 RMSDP=2.64D-07 MaxDP=2.01D-05 DE=-1.41D-10 OVMax= 1.49D-04

 Cycle  67  Pass 1  IDiag  1:
 E= -1102.19291321801     Delta-E=       -0.000000000094 Rises=F Damp=F
 DIIS: error= 3.16D-08 at cycle  67 NSaved=  20.
 NSaved=20 IEnMin=20 EnMin= -1102.19291321801     IErMin=20 ErrMin= 3.16D-08
 ErrMax= 3.16D-08  0.00D+00 EMaxC= 1.00D-01 BMatC= 6.02D-13 BMatP= 7.30D-13
 IDIUse=1 WtCom= 1.00D+00 WtEn= 0.00D+00
 Coeff-Com: -0.512D+00 0.695D+00 0.421D-01-0.164D+00-0.815D-01-0.764D-01
 Coeff-Com:  0.118D+00-0.138D-01-0.259D+00 0.118D+00 0.544D+00-0.346D+00
 Coeff-Com: -0.767D+00 0.731D+00 0.985D+00-0.542D+00-0.751D+00-0.496D+00
 Coeff-Com:  0.823D+00 0.953D+00
 Coeff:     -0.512D+00 0.695D+00 0.421D-01-0.164D+00-0.815D-01-0.764D-01
 Coeff:      0.118D+00-0.138D-01-0.259D+00 0.118D+00 0.544D+00-0.346D+00
 Coeff:     -0.767D+00 0.731D+00 0.985D+00-0.542D+00-0.751D+00-0.496D+00
 Coeff:      0.823D+00 0.953D+00
 Gap=     0.081 Goal=   None    Shift=    0.000
 Gap=     0.105 Goal=   None    Shift=    0.000
 RMSDP=8.31D-08 MaxDP=6.61D-06 DE=-9.37D-11 OVMax= 4.74D-05

 Cycle  68  Pass 1  IDiag  1:
 E= -1102.19291321803     Delta-E=       -0.000000000019 Rises=F Damp=F
 DIIS: error= 2.84D-08 at cycle  68 NSaved=  20.
 NSaved=20 IEnMin=20 EnMin= -1102.19291321803     IErMin=20 ErrMin= 2.84D-08
 ErrMax= 2.84D-08  0.00D+00 EMaxC= 1.00D-01 BMatC= 5.02D-13 BMatP= 6.02D-13
 IDIUse=1 WtCom= 1.00D+00 WtEn= 0.00D+00
 Coeff-Com: -0.434D+00 0.272D+00 0.141D+00 0.778D-01 0.275D-01 0.928D-01
 Coeff-Com:  0.905D-01-0.433D+00-0.417D-01 0.417D+00-0.176D-01-0.631D+00
 Coeff-Com: -0.115D+00 0.536D+00 0.283D+00 0.861D-01-0.472D+00-0.575D+00
 Coeff-Com:  0.235D+00 0.146D+01
 Coeff:     -0.434D+00 0.272D+00 0.141D+00 0.778D-01 0.275D-01 0.928D-01
 Coeff:      0.905D-01-0.433D+00-0.417D-01 0.417D+00-0.176D-01-0.631D+00
 Coeff:     -0.115D+00 0.536D+00 0.283D+00 0.861D-01-0.472D+00-0.575D+00
 Coeff:      0.235D+00 0.146D+01
 Gap=     0.081 Goal=   None    Shift=    0.000
 Gap=     0.105 Goal=   None    Shift=    0.000
 RMSDP=1.62D-07 MaxDP=1.27D-05 DE=-1.86D-11 OVMax= 9.23D-05

 Cycle  69  Pass 1  IDiag  1:
 E= -1102.19291321807     Delta-E=       -0.000000000045 Rises=F Damp=F
 DIIS: error= 2.54D-08 at cycle  69 NSaved=  20.
 NSaved=20 IEnMin=20 EnMin= -1102.19291321807     IErMin=20 ErrMin= 2.54D-08
 ErrMax= 2.54D-08  0.00D+00 EMaxC= 1.00D-01 BMatC= 4.21D-13 BMatP= 5.02D-13
 IDIUse=1 WtCom= 1.00D+00 WtEn= 0.00D+00
 Coeff-Com: -0.838D-01-0.592D-02 0.557D-01 0.190D+00 0.148D+00 0.384D-01
 Coeff-Com: -0.465D+00 0.218D-01 0.255D+00 0.453D-01-0.738D+00-0.330D+00
 Coeff-Com:  0.477D+00 0.565D+00 0.280D+00-0.317D+00-0.850D+00-0.673D+00
 Coeff-Com:  0.106D+01 0.133D+01
 Coeff:     -0.838D-01-0.592D-02 0.557D-01 0.190D+00 0.148D+00 0.384D-01
 Coeff:     -0.465D+00 0.218D-01 0.255D+00 0.453D-01-0.738D+00-0.330D+00
 Coeff:      0.477D+00 0.565D+00 0.280D+00-0.317D+00-0.850D+00-0.673D+00
 Coeff:      0.106D+01 0.133D+01
 Gap=     0.081 Goal=   None    Shift=    0.000
 Gap=     0.105 Goal=   None    Shift=    0.000
 RMSDP=1.56D-07 MaxDP=1.17D-05 DE=-4.48D-11 OVMax= 8.83D-05

 Cycle  70  Pass 1  IDiag  1:
 E= -1102.19291321810     Delta-E=       -0.000000000023 Rises=F Damp=F
 DIIS: error= 1.70D-08 at cycle  70 NSaved=  20.
 NSaved=20 IEnMin=20 EnMin= -1102.19291321810     IErMin=20 ErrMin= 1.70D-08
 ErrMax= 1.70D-08  0.00D+00 EMaxC= 1.00D-01 BMatC= 2.75D-13 BMatP= 4.21D-13
 IDIUse=1 WtCom= 1.00D+00 WtEn= 0.00D+00
 Coeff-Com: -0.606D-01 0.709D-01 0.726D-01-0.258D-01-0.210D+00 0.575D-01
 Coeff-Com:  0.185D+00 0.720D-01-0.130D+00-0.271D+00-0.119D+00 0.112D+00
 Coeff-Com:  0.281D+00-0.254D-01 0.613D-01-0.639D-01-0.709D+00 0.306D-01
 Coeff-Com:  0.738D+00 0.932D+00
 Coeff:     -0.606D-01 0.709D-01 0.726D-01-0.258D-01-0.210D+00 0.575D-01
 Coeff:      0.185D+00 0.720D-01-0.130D+00-0.271D+00-0.119D+00 0.112D+00
 Coeff:      0.281D+00-0.254D-01 0.613D-01-0.639D-01-0.709D+00 0.306D-01
 Coeff:      0.738D+00 0.932D+00
 Gap=     0.081 Goal=   None    Shift=    0.000
[...]
      2         58           0        1.549762   -0.633538   -0.084591
      3         58           0       -1.544054    0.627800    0.074524
      4          8           0       -0.327253   -1.223646    0.393127
      5          1           0       -3.390963   -0.197953    1.112562
      6          1           0       -1.921723    2.693271    0.815412
 ---------------------------------------------------------------------
                    Distance matrix (angstroms):
                    1          2          3          4          5
     1  O    0.000000
     2  Ce   2.014730   0.000000
     3  Ce   2.266898   3.344845   0.000000
     4  O    2.651577   2.024754   2.238295   0.000000
     5  H    4.485654   5.102320   2.273865   3.309977   0.000000
     6  H    3.232411   4.891714   2.226594   4.250047   3.256707
                    6
     6  H    0.000000
 Symmetry turned off by external request.
 Stoichiometry    Ce2H2O2(1-,4)
 Framework group  C1[X(Ce2H2O2)]
 Deg. of freedom    12
 Full point group                 C1      NOp   1
 Rotational constants (GHZ):           8.0322734           0.6294432           0.5858940
 Leave Link  202 at Fri Sep 14 20:48:12 2018, MaxMem=  4294967296 cpu:               0.1 elap:               0.0
 (Enter /opt/gaussian/gdv-20170407-i10+/gdv/l601.exe)
 Copying SCF densities to generalized density rwf, IOpCl= 1 IROHF=0.

 **********************************************************************

            Population analysis using the SCF Density.

 **********************************************************************

 Alpha  occ. eigenvalues --  -18.92625 -18.92483 -10.89262 -10.88976  -7.84457
 Alpha  occ. eigenvalues --   -7.83942  -7.83933  -7.83716  -7.83671  -7.83529
 Alpha  occ. eigenvalues --   -4.04324  -4.04221  -4.03986  -4.03950  -4.03912
 Alpha  occ. eigenvalues --   -4.03778  -4.02173  -4.01782  -4.01723  -4.01531
 Alpha  occ. eigenvalues --   -1.38396  -1.37616  -0.82012  -0.79941  -0.68914
 Alpha  occ. eigenvalues --   -0.68400  -0.68171  -0.67406  -0.59914  -0.58155
 Alpha  occ. eigenvalues --   -0.17984  -0.16837  -0.16784  -0.15473  -0.14339
 Alpha  occ. eigenvalues --   -0.14136  -0.06526  -0.05381  -0.04997  -0.04769
 Alpha  occ. eigenvalues --   -0.00851
 Alpha virt. eigenvalues --    0.07342   0.10360   0.10499   0.11525   0.11603
 Alpha virt. eigenvalues --    0.11761   0.11857   0.12243   0.12318   0.12633
 Alpha virt. eigenvalues --    0.12854   0.13255   0.13958   0.14129   0.14183
 Alpha virt. eigenvalues --    0.14448   0.14768   0.14921   0.15185   0.15655
 Alpha virt. eigenvalues --    0.16515   0.17392   0.17862   0.18294   0.19679
 Alpha virt. eigenvalues --    0.20910   0.22234   0.23433   0.24614   0.26442
 Alpha virt. eigenvalues --    0.28613   0.29559   0.29975   0.30833   0.32749
 Alpha virt. eigenvalues --    0.34214   0.34773   0.35616   0.36794   0.39422
 Alpha virt. eigenvalues --    0.40762   0.43129   0.44600   0.46255   0.48823
 Alpha virt. eigenvalues --    0.49917   0.50311   0.51431   0.52869   0.54495
 Alpha virt. eigenvalues --    0.57677   0.60327   0.61804   0.63273   0.64313
 Alpha virt. eigenvalues --    0.65294   0.66439   0.69068   0.70467   0.71659
 Alpha virt. eigenvalues --    0.72496   0.74441   0.75240   0.77158   0.78724
 Alpha virt. eigenvalues --    0.80454   0.80859   0.83553   0.84150   0.84821
 Alpha virt. eigenvalues --    0.86586   0.87967   0.88736   0.89396   0.91208
 Alpha virt. eigenvalues --    0.93308   0.94007   0.94312   0.94522   0.95595
 Alpha virt. eigenvalues --    0.97499   0.98365   0.99825   1.00681   1.03990
 Alpha virt. eigenvalues --    1.05003   1.05362   1.06460   1.08283   1.09611
 Alpha virt. eigenvalues --    1.10343   1.11654   1.11812   1.13568   1.15013
 Alpha virt. eigenvalues --    1.15669   1.20436   1.20891   1.23206   1.24265
 Alpha virt. eigenvalues --    1.25206   1.26996   1.28025   1.30168   1.33952
 Alpha virt. eigenvalues --    1.35593   1.37164   1.42015   1.44161   1.45260
 Alpha virt. eigenvalues --    1.48211   1.50096   1.57387   1.59031   1.59618
 Alpha virt. eigenvalues --    1.63067   1.65279   1.66266   1.67847   1.75605
 Alpha virt. eigenvalues --    1.77869   1.78791   1.84229   1.85561   1.87081
 Alpha virt. eigenvalues --    1.91199   1.91931   1.93729   1.96995   2.00558
 Alpha virt. eigenvalues --    2.04652   2.14587   2.15888   2.17607   2.17763
 Alpha virt. eigenvalues --    2.19189   2.19406   2.21273   2.22646   2.24002
 Alpha virt. eigenvalues --    2.25943   2.29209   2.30480   2.32150   2.32295
 Alpha virt. eigenvalues --    2.32945   2.34847   2.35628   2.38294   2.38695
 Alpha virt. eigenvalues --    2.39264   2.40268   2.43308   2.45376   2.45753
 Alpha virt. eigenvalues --    2.47196   2.51931   2.53076   2.53638   2.54139
 Alpha virt. eigenvalues --    2.61006   2.62938   2.63765   2.72387   2.74207
 Alpha virt. eigenvalues --    2.75352   2.82551   2.84311   2.86247   2.90770
 Alpha virt. eigenvalues --    2.94855   2.95928   2.97932   3.09774   3.10458
 Alpha virt. eigenvalues --    3.10651   3.13253   3.21470   3.32676   3.38664
 Alpha virt. eigenvalues --    3.40946   3.47652   3.51121   3.52160   3.54318
 Alpha virt. eigenvalues --    3.57364   3.59095   3.60595   3.67849   3.69747
 Alpha virt. eigenvalues --    3.75318   3.81100   3.82476   3.82938   3.85207
 Alpha virt. eigenvalues --    3.87950   3.88381   3.90161   3.91172   3.93636
 Alpha virt. eigenvalues --    3.94180   3.95859   3.96953   3.99011   3.99875
 Alpha virt. eigenvalues --    4.01148   4.03169   4.05492   4.05800   4.09524
 Alpha virt. eigenvalues --    4.12621   4.13547   4.20367   4.23657   4.24759
 Alpha virt. eigenvalues --    4.28517   4.32089   4.44104   4.48756   4.54806
 Alpha virt. eigenvalues --    4.61237   4.73526   4.84801   4.93401   4.97310
 Alpha virt. eigenvalues --    5.10455   5.22769   6.32873   6.36599   6.38973
 Alpha virt. eigenvalues --    6.40222   6.41829   6.45346   6.45860   6.47070
 Alpha virt. eigenvalues --    6.48136   6.48520   6.51628   6.52186   6.52499
 Alpha virt. eigenvalues --    6.52892   6.54600   6.55667   6.57788   6.58837
 Alpha virt. eigenvalues --    6.59633   6.61979   6.63605   6.64860   6.67334
 Alpha virt. eigenvalues --    6.70644   6.72651   6.78278   6.79880   6.81605
 Alpha virt. eigenvalues --    6.82301   6.83053   6.83693   6.88480   6.89278
 Alpha virt. eigenvalues --    6.89968   6.93579   7.00016   7.06362   7.23419
 Alpha virt. eigenvalues --    7.34055   7.46359   7.85461   7.87080   7.96429
 Alpha virt. eigenvalues --    8.01216   8.05473   8.07887   8.12247   8.16331
 Alpha virt. eigenvalues --    8.21553   8.24080   8.34933   8.44415   8.54946
 Alpha virt. eigenvalues --    8.59988   8.62626   8.67478   8.68654   8.70741
 Alpha virt. eigenvalues --    8.72426   8.81352   8.91814   9.00196   9.06693
 Alpha virt. eigenvalues --    9.10591   9.29682   9.36682   9.52846   9.63989
 Alpha virt. eigenvalues --   11.00588  12.29346  12.71416  12.74713  12.86158
 Alpha virt. eigenvalues --   12.94814  13.12324  13.19732  22.52117  30.16458
  Beta  occ. eigenvalues --  -18.92734 -18.92601 -10.85871 -10.85575  -7.81304
  Beta  occ. eigenvalues --   -7.80476  -7.80366  -7.80187  -7.79902  -7.79773
  Beta  occ. eigenvalues --   -4.01581  -4.01156  -4.01054  -4.00804  -3.98601
  Beta  occ. eigenvalues --   -3.98077  -3.97988  -3.97751  -3.97621  -3.97421
  Beta  occ. eigenvalues --   -1.36408  -1.35738  -0.81512  -0.79616  -0.67253
  Beta  occ. eigenvalues --   -0.66816  -0.66572  -0.66018  -0.58910  -0.57311
  Beta  occ. eigenvalues --   -0.17885  -0.16818  -0.16741  -0.15624  -0.14508
  Beta  occ. eigenvalues --   -0.13919  -0.06403  -0.05125
  Beta virt. eigenvalues --    0.05450   0.08290   0.12582   0.12772   0.13274
  Beta virt. eigenvalues --    0.13382   0.13617   0.13900   0.13933   0.14019
  Beta virt. eigenvalues --    0.14533   0.14620   0.15218   0.15265   0.15437
  Beta virt. eigenvalues --    0.15634   0.15727   0.15886   0.15984   0.16601
  Beta virt. eigenvalues --    0.16665   0.17903   0.18150   0.18498   0.18868
  Beta virt. eigenvalues --    0.19082   0.19449   0.20962   0.22522   0.22745
  Beta virt. eigenvalues --    0.24666   0.25377   0.27072   0.29482   0.30350
  Beta virt. eigenvalues --    0.30508   0.31216   0.33391   0.34480   0.35214
  Beta virt. eigenvalues --    0.36204   0.37325   0.39792   0.41065   0.43370
  Beta virt. eigenvalues --    0.45058   0.46880   0.49642   0.52022   0.52609
  Beta virt. eigenvalues --    0.53519   0.54319   0.55463   0.58633   0.61149
  Beta virt. eigenvalues --    0.62928   0.64167   0.65030   0.66224   0.67484
  Beta virt. eigenvalues --    0.69688   0.71411   0.72381   0.73018   0.75155
  Beta virt. eigenvalues --    0.76154   0.77674   0.79438   0.80838   0.81507
  Beta virt. eigenvalues --    0.84221   0.84627   0.85382   0.87159   0.88411
  Beta virt. eigenvalues --    0.89750   0.90217   0.92098   0.94156   0.94385
  Beta virt. eigenvalues --    0.94997   0.95742   0.97171   0.98242   0.99503
  Beta virt. eigenvalues --    1.00228   1.01327   1.04345   1.05544   1.05734
  Beta virt. eigenvalues --    1.06995   1.08645   1.10343   1.10924   1.12099
  Beta virt. eigenvalues --    1.12353   1.14044   1.15737   1.16231   1.21186
  Beta virt. eigenvalues --    1.21663   1.23530   1.24627   1.25631   1.27482
  Beta virt. eigenvalues --    1.28615   1.30669   1.34479   1.36194   1.37931
  Beta virt. eigenvalues --    1.42464   1.45144   1.46404   1.49393   1.51141
  Beta virt. eigenvalues --    1.58176   1.59953   1.60846   1.63710   1.65935
  Beta virt. eigenvalues --    1.66932   1.68605   1.76419   1.78749   1.79495
  Beta virt. eigenvalues --    1.84728   1.85983   1.87613   1.91543   1.92265
  Beta virt. eigenvalues --    1.94551   1.97493   2.01013   2.04985   2.15052
  Beta virt. eigenvalues --    2.17314   2.17924   2.18553   2.20062   2.20297
  Beta virt. eigenvalues --    2.22443   2.23432   2.24638   2.26445   2.30545
  Beta virt. eigenvalues --    2.32654   2.32840   2.33580   2.33978   2.35404
  Beta virt. eigenvalues --    2.36420   2.38807   2.39533   2.40759   2.40973
  Beta virt. eigenvalues --    2.44134   2.46315   2.46747   2.48615   2.52902
  Beta virt. eigenvalues --    2.53970   2.54326   2.56664   2.61838   2.63523
  Beta virt. eigenvalues --    2.64587   2.72626   2.75050   2.76068   2.83060
  Beta virt. eigenvalues --    2.85099   2.86959   2.91713   2.95471   2.96591
  Beta virt. eigenvalues --    2.98516   3.10464   3.11325   3.11874   3.14333
  Beta virt. eigenvalues --    3.22075   3.34777   3.41425   3.42918   3.48228
  Beta virt. eigenvalues --    3.52694   3.53786   3.56676   3.59247   3.60549
  Beta virt. eigenvalues --    3.62665   3.68542   3.70964   3.77104   3.81701
  Beta virt. eigenvalues --    3.83554   3.84412   3.85790   3.88150   3.88428
  Beta virt. eigenvalues --    3.90982   3.92178   3.94285   3.94636   3.96086
  Beta virt. eigenvalues --    3.97400   3.99302   4.00104   4.01348   4.04350
  Beta virt. eigenvalues --    4.06079   4.06400   4.10384   4.12960   4.14031
  Beta virt. eigenvalues --    4.20965   4.23963   4.25154   4.28859   4.32520
  Beta virt. eigenvalues --    4.44407   4.49284   4.55202   4.61492   4.74029
  Beta virt. eigenvalues --    4.85878   4.93965   4.98140   5.10965   5.23618
  Beta virt. eigenvalues --    6.33325   6.36640   6.38969   6.40323   6.41847
  Beta virt. eigenvalues --    6.46195   6.47363   6.48179   6.48783   6.52220
  Beta virt. eigenvalues --    6.53240   6.53458   6.53560   6.55436   6.56444
  Beta virt. eigenvalues --    6.58436   6.58802   6.59996   6.61801   6.62977
  Beta virt. eigenvalues --    6.64228   6.68580   6.68868   6.71503   6.73214
  Beta virt. eigenvalues --    6.79046   6.80352   6.81553   6.82482   6.83227
  Beta virt. eigenvalues --    6.84440   6.88843   6.89410   6.90298   6.93615
  Beta virt. eigenvalues --    7.00645   7.06854   7.23888   7.34863   7.46757
  Beta virt. eigenvalues --    7.89409   7.91588   8.01020   8.04774   8.09169
  Beta virt. eigenvalues --    8.10198   8.15290   8.19513   8.23014   8.26637
  Beta virt. eigenvalues --    8.38600   8.46705   8.58204   8.62428   8.65116
  Beta virt. eigenvalues --    8.69274   8.71397   8.73172   8.75680   8.83549
  Beta virt. eigenvalues --    8.93370   9.03198   9.09520   9.11474   9.30299
  Beta virt. eigenvalues --    9.38658   9.54678   9.65755  11.00793  12.29592
  Beta virt. eigenvalues --   12.74063  12.77437  12.88957  12.97472  13.14703
  Beta virt. eigenvalues --   13.22328  22.53659  30.19090
          Condensed to atoms (all electrons):
               1          2          3          4          5          6
     1  O    8.722486   0.157022   0.053526  -0.092569  -0.034652  -0.030714
     2  Ce   0.157022  29.368746  -0.102877   0.179872   0.000317  -0.008023
     3  Ce   0.053526  -0.102877  28.191831   0.075111   0.224196   0.245400
     4  O   -0.092569   0.179872   0.075111   8.688515  -0.027816  -0.034591
     5  H   -0.034652   0.000317   0.224196  -0.027816   1.478071  -0.043229
     6  H   -0.030714  -0.008023   0.245400  -0.034591  -0.043229   1.428404
          Atomic-Atomic Spin Densities.
               1          2          3          4          5          6
     1  O   -0.033720  -0.036632   0.001513  -0.008087  -0.000967   0.004695
     2  Ce  -0.036632   2.297540  -0.092865  -0.003506  -0.001692  -0.012198
     3  Ce   0.001513  -0.092865   1.076399   0.005552  -0.004300   0.000087
     4  O   -0.008087  -0.003506   0.005552  -0.041811   0.001627  -0.000388
     5  H   -0.000967  -0.001692  -0.004300   0.001627  -0.007059   0.004147
     6  H    0.004695  -0.012198   0.000087  -0.000388   0.004147  -0.005322
 Mulliken charges and spin densities:
               1          2
     1  O   -0.775099  -0.073198
     2  Ce   0.404942   2.150648
     3  Ce   1.312814   0.986387
     4  O   -0.788521  -0.046614
     5  H   -0.596888  -0.008243
     6  H   -0.557247  -0.008980
 Sum of Mulliken charges =  -1.00000   3.00000
 Mulliken charges and spin densities with hydrogens summed into heavy atoms:
               1          2
     1  O   -0.775099  -0.073198
     2  Ce   0.404942   2.150648
     3  Ce   0.158678   0.969164
     4  O   -0.788521  -0.046614
 APT charges:
               1
     1  O   -0.767870
     2  Ce   0.546192
     3  Ce   1.018524
     4  O   -0.808985
     5  H   -0.517677
     6  H   -0.470184
 Sum of APT charges =  -1.00000
 APT charges with hydrogens summed into heavy atoms:
               1
     1  O   -0.767870
     2  Ce   0.546192
     3  Ce   0.030663
     4  O   -0.808985
 Electronic spatial extent (au):  <R**2>=           1028.1530
 Charge=             -1.0000 electrons
 Dipole moment (field-independent basis, Debye):
    X=              5.5352    Y=             -2.8771    Z=             -4.9891  Tot=              7.9879
 Quadrupole moment (field-independent basis, Debye-Ang):
   XX=           -120.7911   YY=           -112.6395   ZZ=            -89.3660
   XY=              5.1772   XZ=             18.9061   YZ=             -3.4577
 Traceless Quadrupole moment (field-independent basis, Debye-Ang):
   XX=            -13.1922   YY=             -5.0406   ZZ=             18.2328
   XY=              5.1772   XZ=             18.9061   YZ=             -3.4577
 Octapole moment (field-independent basis, Debye-Ang**2):
  XXX=             82.2427  YYY=            -48.5576  ZZZ=            -18.1565  XYY=             27.6463
  XXY=             -1.7407  XXZ=            -55.4506  XZZ=              0.0968  YZZ=              1.5634
  YYZ=            -21.1944  XYZ=              9.1276
 Hexadecapole moment (field-independent basis, Debye-Ang**3):
 XXXX=          -2087.5169 YYYY=           -819.0603 ZZZZ=           -292.3590 XXXY=            271.8720
 XXXZ=            254.8093 YYYX=            347.9953 YYYZ=            -63.9611 ZZZX=            114.0822
 ZZZY=            -22.0201 XXYY=           -461.2921 XXZZ=           -365.9708 YYZZ=           -172.0149
 XXYZ=            -26.5131 YYXZ=             72.0620 ZZXY=             86.9751
 N-N= 4.188454094532D+02 E-N=-3.206484880998D+03  KE= 5.210635585084D+02
  Exact polarizability:   0.000   0.000   0.000   0.000   0.000   0.000
 Approx polarizability: 286.224 -28.319 226.297   4.376   8.452 225.213
                          Isotropic Fermi Contact Couplings
        Atom                 a.u.       MegaHertz       Gauss      10(-4) cm-1
     1  O(17)              0.00649      -1.31041      -0.46759      -0.43710
     4  O(17)              0.00701      -1.41600      -0.50526      -0.47233
     5  H(1)              -0.00229      -3.40709      -1.21574      -1.13648
     6  H(1)              -0.00161      -2.40374      -0.85771      -0.80180
 --------------------------------------------------------
       Center         ----  Spin Dipole Couplings  ----
                      3XX-RR        3YY-RR        3ZZ-RR
 --------------------------------------------------------
     1   Atom        0.040870      0.021217     -0.062087
     2   Atom        0.078328     -0.009658     -0.068670
     3   Atom       -0.040948     -0.145579      0.186527
     4   Atom        0.057647      0.004145     -0.061792
     5   Atom        0.015814     -0.009780     -0.006034
     6   Atom       -0.011407      0.022474     -0.011067
 --------------------------------------------------------
                        XY            XZ            YZ
 --------------------------------------------------------
     1   Atom       -0.028336     -0.007957     -0.017757
     2   Atom       -0.044183     -0.010938     -0.012823
     3   Atom        0.104788      0.139218     -0.394238
     4   Atom       -0.018961     -0.016272     -0.018758
     5   Atom        0.010947     -0.015438     -0.006350
     6   Atom       -0.009027     -0.003282      0.013548
 --------------------------------------------------------


 ---------------------------------------------------------------------------------
              Anisotropic Spin Dipole Couplings in Principal Axis System
 ---------------------------------------------------------------------------------

       Atom             a.u.   MegaHertz   Gauss  10(-4) cm-1        Axes

              Baa    -0.0675     4.885     1.743     1.629  0.1321  0.2349  0.9630
     1 O(17)  Bbb     0.0064    -0.460    -0.164    -0.153  0.5738  0.7741 -0.2675
              Bcc     0.0612    -4.425    -1.579    -1.476  0.8083 -0.5879  0.0325
 
              Baa    -0.0701     5.075     1.811     1.693  0.1621  0.2803  0.9461
     4 O(17)  Bbb     0.0056    -0.408    -0.146    -0.136  0.2373  0.9196 -0.3131
              Bcc     0.0645    -4.667    -1.665    -1.557  0.9578 -0.2753 -0.0825
 
              Baa    -0.0146    -7.786    -2.778    -2.597  0.1325  0.6665  0.7336
     5 H(1)   Bbb    -0.0134    -7.169    -2.558    -2.391 -0.5259  0.6747 -0.5179
              Bcc     0.0280    14.955     5.336     4.989  0.8402  0.3171 -0.4399
 
              Baa    -0.0159    -8.462    -3.019    -2.823  0.0372 -0.3252  0.9449
     6 H(1)   Bbb    -0.0137    -7.287    -2.600    -2.431  0.9728  0.2280  0.0402
              Bcc     0.0295    15.749     5.620     5.253 -0.2285  0.9177  0.3249
 

 ---------------------------------------------------------------------------------

 No NMR shielding tensors so no spin-rotation constants.
 Leave Link  601 at Fri Sep 14 20:48:13 2018, MaxMem=  4294967296 cpu:              14.3 elap:               1.4
 (Enter /opt/gaussian/gdv-20170407-i10+/gdv/l9999.exe)

 This type of calculation cannot be archived.


 THE BEST WAY TO CONVINCE A FOOL THAT HE IS WRONG 
 IS TO LET HIM HAVE HIS OWN WAY.

                                         JOSH BILLINGS
 Job cpu time:       5 days 12 hours 40 minutes 32.6 seconds.
 Elapsed time:       0 days 13 hours 17 minutes 57.0 seconds.
 File lengths (MBytes):  RWF=    147 Int=      0 D2E=      0 Chk=     67 Scr=      1
 Normal termination of Gaussian DV at Fri Sep 14 20:48:13 2018.
